<?xml version="1.0" encoding="ISO-8859-1"?>
<modeling>
 <generator>
  <i name="program" type="string">vasp</i>
  <i name="version" type="string">4.6.28 </i>
  <i name="subversion" type="string">25Jul05 complex  parallel</i>
  <i name="platform" type="string">LinuxIFC</i>
  <i name="date" type="string">2017 01 14</i>
  <i name="time" type="string">04:20:10</i>
 </generator>
 <incar>
  <i type="string" name="PREC">accurate</i>
  <i type="int" name="IALGO">    38</i>
  <i type="logical" name="ADDGRID"> T  </i>
  <i name="EDIFF">      0.00000001</i>
  <i type="int" name="IBRION">    -1</i>
  <i name="ENCUT">   1000.00000000</i>
  <i type="logical" name="LREAL"> F  </i>
  <i type="int" name="ISMEAR">     0</i>
  <i name="SIGMA">      0.01000000</i>
  <i type="logical" name="LWAVE"> F  </i>
  <i type="logical" name="LCHARG"> F  </i>
 </incar>
 <kpoints>
  <generation param="Gamma">
   <v type="int" name="divisions">      36      36      36</v>
   <v name="usershift">      0.00000000      0.00000000      0.00000000</v>
   <v name="genvec1">      0.02777778      0.00000000      0.00000000</v>
   <v name="genvec2">      0.00000000      0.02777778      0.00000000</v>
   <v name="genvec3">      0.00000000      0.00000000      0.02777778</v>
   <v name="shift">      0.00000000      0.00000000      0.00000000</v>
  </generation>
  <varray name="kpointlist" >
   <v>       0.00000000      0.00000000      0.00000000</v>
   <v>       0.02777778      0.00000000      0.00000000</v>
   <v>       0.05555556      0.00000000      0.00000000</v>
   <v>       0.08333333      0.00000000      0.00000000</v>
   <v>       0.11111111      0.00000000      0.00000000</v>
   <v>       0.13888889      0.00000000      0.00000000</v>
   <v>       0.16666667      0.00000000      0.00000000</v>
   <v>       0.19444444      0.00000000      0.00000000</v>
   <v>       0.22222222      0.00000000      0.00000000</v>
   <v>       0.25000000      0.00000000      0.00000000</v>
   <v>       0.27777778      0.00000000      0.00000000</v>
   <v>       0.30555556      0.00000000      0.00000000</v>
   <v>       0.33333333      0.00000000      0.00000000</v>
   <v>       0.36111111      0.00000000      0.00000000</v>
   <v>       0.38888889      0.00000000      0.00000000</v>
   <v>       0.41666667      0.00000000      0.00000000</v>
   <v>       0.44444444      0.00000000      0.00000000</v>
   <v>       0.47222222      0.00000000      0.00000000</v>
   <v>       0.50000000      0.00000000      0.00000000</v>
   <v>       0.02777778      0.02777778      0.00000000</v>
   <v>       0.05555556      0.02777778      0.00000000</v>
   <v>       0.08333333      0.02777778      0.00000000</v>
   <v>       0.11111111      0.02777778      0.00000000</v>
   <v>       0.13888889      0.02777778      0.00000000</v>
   <v>       0.16666667      0.02777778      0.00000000</v>
   <v>       0.19444444      0.02777778      0.00000000</v>
   <v>       0.22222222      0.02777778      0.00000000</v>
   <v>       0.25000000      0.02777778      0.00000000</v>
   <v>       0.27777778      0.02777778      0.00000000</v>
   <v>       0.30555556      0.02777778      0.00000000</v>
   <v>       0.33333333      0.02777778      0.00000000</v>
   <v>       0.36111111      0.02777778      0.00000000</v>
   <v>       0.38888889      0.02777778      0.00000000</v>
   <v>       0.41666667      0.02777778      0.00000000</v>
   <v>       0.44444444      0.02777778      0.00000000</v>
   <v>       0.47222222      0.02777778      0.00000000</v>
   <v>       0.50000000      0.02777778      0.00000000</v>
   <v>       0.05555556      0.05555556      0.00000000</v>
   <v>       0.08333333      0.05555556      0.00000000</v>
   <v>       0.11111111      0.05555556      0.00000000</v>
   <v>       0.13888889      0.05555556      0.00000000</v>
   <v>       0.16666667      0.05555556      0.00000000</v>
   <v>       0.19444444      0.05555556      0.00000000</v>
   <v>       0.22222222      0.05555556      0.00000000</v>
   <v>       0.25000000      0.05555556      0.00000000</v>
   <v>       0.27777778      0.05555556      0.00000000</v>
   <v>       0.30555556      0.05555556      0.00000000</v>
   <v>       0.33333333      0.05555556      0.00000000</v>
   <v>       0.36111111      0.05555556      0.00000000</v>
   <v>       0.38888889      0.05555556      0.00000000</v>
   <v>       0.41666667      0.05555556      0.00000000</v>
   <v>       0.44444444      0.05555556      0.00000000</v>
   <v>       0.47222222      0.05555556      0.00000000</v>
   <v>       0.50000000      0.05555556      0.00000000</v>
   <v>       0.08333333      0.08333333      0.00000000</v>
   <v>       0.11111111      0.08333333      0.00000000</v>
   <v>       0.13888889      0.08333333      0.00000000</v>
   <v>       0.16666667      0.08333333      0.00000000</v>
   <v>       0.19444444      0.08333333      0.00000000</v>
   <v>       0.22222222      0.08333333      0.00000000</v>
   <v>       0.25000000      0.08333333      0.00000000</v>
   <v>       0.27777778      0.08333333      0.00000000</v>
   <v>       0.30555556      0.08333333      0.00000000</v>
   <v>       0.33333333      0.08333333      0.00000000</v>
   <v>       0.36111111      0.08333333      0.00000000</v>
   <v>       0.38888889      0.08333333      0.00000000</v>
   <v>       0.41666667      0.08333333      0.00000000</v>
   <v>       0.44444444      0.08333333      0.00000000</v>
   <v>       0.47222222      0.08333333      0.00000000</v>
   <v>       0.50000000      0.08333333      0.00000000</v>
   <v>       0.11111111      0.11111111      0.00000000</v>
   <v>       0.13888889      0.11111111      0.00000000</v>
   <v>       0.16666667      0.11111111      0.00000000</v>
   <v>       0.19444444      0.11111111      0.00000000</v>
   <v>       0.22222222      0.11111111      0.00000000</v>
   <v>       0.25000000      0.11111111      0.00000000</v>
   <v>       0.27777778      0.11111111      0.00000000</v>
   <v>       0.30555556      0.11111111      0.00000000</v>
   <v>       0.33333333      0.11111111      0.00000000</v>
   <v>       0.36111111      0.11111111      0.00000000</v>
   <v>       0.38888889      0.11111111      0.00000000</v>
   <v>       0.41666667      0.11111111      0.00000000</v>
   <v>       0.44444444      0.11111111      0.00000000</v>
   <v>       0.47222222      0.11111111      0.00000000</v>
   <v>       0.50000000      0.11111111      0.00000000</v>
   <v>       0.13888889      0.13888889      0.00000000</v>
   <v>       0.16666667      0.13888889      0.00000000</v>
   <v>       0.19444444      0.13888889      0.00000000</v>
   <v>       0.22222222      0.13888889      0.00000000</v>
   <v>       0.25000000      0.13888889      0.00000000</v>
   <v>       0.27777778      0.13888889      0.00000000</v>
   <v>       0.30555556      0.13888889      0.00000000</v>
   <v>       0.33333333      0.13888889      0.00000000</v>
   <v>       0.36111111      0.13888889      0.00000000</v>
   <v>       0.38888889      0.13888889      0.00000000</v>
   <v>       0.41666667      0.13888889      0.00000000</v>
   <v>       0.44444444      0.13888889      0.00000000</v>
   <v>       0.47222222      0.13888889      0.00000000</v>
   <v>       0.50000000      0.13888889      0.00000000</v>
   <v>       0.16666667      0.16666667      0.00000000</v>
   <v>       0.19444444      0.16666667      0.00000000</v>
   <v>       0.22222222      0.16666667      0.00000000</v>
   <v>       0.25000000      0.16666667      0.00000000</v>
   <v>       0.27777778      0.16666667      0.00000000</v>
   <v>       0.30555556      0.16666667      0.00000000</v>
   <v>       0.33333333      0.16666667      0.00000000</v>
   <v>       0.36111111      0.16666667      0.00000000</v>
   <v>       0.38888889      0.16666667      0.00000000</v>
   <v>       0.41666667      0.16666667      0.00000000</v>
   <v>       0.44444444      0.16666667      0.00000000</v>
   <v>       0.47222222      0.16666667      0.00000000</v>
   <v>       0.50000000      0.16666667      0.00000000</v>
   <v>       0.19444444      0.19444444      0.00000000</v>
   <v>       0.22222222      0.19444444      0.00000000</v>
   <v>       0.25000000      0.19444444      0.00000000</v>
   <v>       0.27777778      0.19444444      0.00000000</v>
   <v>       0.30555556      0.19444444      0.00000000</v>
   <v>       0.33333333      0.19444444      0.00000000</v>
   <v>       0.36111111      0.19444444      0.00000000</v>
   <v>       0.38888889      0.19444444      0.00000000</v>
   <v>       0.41666667      0.19444444      0.00000000</v>
   <v>       0.44444444      0.19444444      0.00000000</v>
   <v>       0.47222222      0.19444444      0.00000000</v>
   <v>       0.50000000      0.19444444      0.00000000</v>
   <v>       0.22222222      0.22222222      0.00000000</v>
   <v>       0.25000000      0.22222222      0.00000000</v>
   <v>       0.27777778      0.22222222      0.00000000</v>
   <v>       0.30555556      0.22222222      0.00000000</v>
   <v>       0.33333333      0.22222222      0.00000000</v>
   <v>       0.36111111      0.22222222      0.00000000</v>
   <v>       0.38888889      0.22222222      0.00000000</v>
   <v>       0.41666667      0.22222222      0.00000000</v>
   <v>       0.44444444      0.22222222      0.00000000</v>
   <v>       0.47222222      0.22222222      0.00000000</v>
   <v>       0.50000000      0.22222222      0.00000000</v>
   <v>       0.25000000      0.25000000      0.00000000</v>
   <v>       0.27777778      0.25000000      0.00000000</v>
   <v>       0.30555556      0.25000000      0.00000000</v>
   <v>       0.33333333      0.25000000      0.00000000</v>
   <v>       0.36111111      0.25000000      0.00000000</v>
   <v>       0.38888889      0.25000000      0.00000000</v>
   <v>       0.41666667      0.25000000      0.00000000</v>
   <v>       0.44444444      0.25000000      0.00000000</v>
   <v>       0.47222222      0.25000000      0.00000000</v>
   <v>       0.50000000      0.25000000      0.00000000</v>
   <v>       0.27777778      0.27777778      0.00000000</v>
   <v>       0.30555556      0.27777778      0.00000000</v>
   <v>       0.33333333      0.27777778      0.00000000</v>
   <v>       0.36111111      0.27777778      0.00000000</v>
   <v>       0.38888889      0.27777778      0.00000000</v>
   <v>       0.41666667      0.27777778      0.00000000</v>
   <v>       0.44444444      0.27777778      0.00000000</v>
   <v>       0.47222222      0.27777778      0.00000000</v>
   <v>       0.50000000      0.27777778      0.00000000</v>
   <v>       0.30555556      0.30555556      0.00000000</v>
   <v>       0.33333333      0.30555556      0.00000000</v>
   <v>       0.36111111      0.30555556      0.00000000</v>
   <v>       0.38888889      0.30555556      0.00000000</v>
   <v>       0.41666667      0.30555556      0.00000000</v>
   <v>       0.44444444      0.30555556      0.00000000</v>
   <v>       0.47222222      0.30555556      0.00000000</v>
   <v>       0.50000000      0.30555556      0.00000000</v>
   <v>       0.33333333      0.33333333      0.00000000</v>
   <v>       0.36111111      0.33333333      0.00000000</v>
   <v>       0.38888889      0.33333333      0.00000000</v>
   <v>       0.41666667      0.33333333      0.00000000</v>
   <v>       0.44444444      0.33333333      0.00000000</v>
   <v>       0.47222222      0.33333333      0.00000000</v>
   <v>       0.50000000      0.33333333      0.00000000</v>
   <v>       0.36111111      0.36111111      0.00000000</v>
   <v>       0.38888889      0.36111111      0.00000000</v>
   <v>       0.41666667      0.36111111      0.00000000</v>
   <v>       0.44444444      0.36111111      0.00000000</v>
   <v>       0.47222222      0.36111111      0.00000000</v>
   <v>       0.50000000      0.36111111      0.00000000</v>
   <v>       0.38888889      0.38888889      0.00000000</v>
   <v>       0.41666667      0.38888889      0.00000000</v>
   <v>       0.44444444      0.38888889      0.00000000</v>
   <v>       0.47222222      0.38888889      0.00000000</v>
   <v>       0.50000000      0.38888889      0.00000000</v>
   <v>       0.41666667      0.41666667      0.00000000</v>
   <v>       0.44444444      0.41666667      0.00000000</v>
   <v>       0.47222222      0.41666667      0.00000000</v>
   <v>       0.50000000      0.41666667      0.00000000</v>
   <v>       0.44444444      0.44444444      0.00000000</v>
   <v>       0.47222222      0.44444444      0.00000000</v>
   <v>       0.50000000      0.44444444      0.00000000</v>
   <v>       0.47222222      0.47222222      0.00000000</v>
   <v>       0.50000000      0.47222222      0.00000000</v>
   <v>       0.50000000      0.50000000      0.00000000</v>
   <v>       0.02777778      0.02777778      0.02777778</v>
   <v>       0.05555556      0.02777778      0.02777778</v>
   <v>       0.08333333      0.02777778      0.02777778</v>
   <v>       0.11111111      0.02777778      0.02777778</v>
   <v>       0.13888889      0.02777778      0.02777778</v>
   <v>       0.16666667      0.02777778      0.02777778</v>
   <v>       0.19444444      0.02777778      0.02777778</v>
   <v>       0.22222222      0.02777778      0.02777778</v>
   <v>       0.25000000      0.02777778      0.02777778</v>
   <v>       0.27777778      0.02777778      0.02777778</v>
   <v>       0.30555556      0.02777778      0.02777778</v>
   <v>       0.33333333      0.02777778      0.02777778</v>
   <v>       0.36111111      0.02777778      0.02777778</v>
   <v>       0.38888889      0.02777778      0.02777778</v>
   <v>       0.41666667      0.02777778      0.02777778</v>
   <v>       0.44444444      0.02777778      0.02777778</v>
   <v>       0.47222222      0.02777778      0.02777778</v>
   <v>       0.50000000      0.02777778      0.02777778</v>
   <v>       0.05555556      0.05555556      0.02777778</v>
   <v>       0.08333333      0.05555556      0.02777778</v>
   <v>       0.11111111      0.05555556      0.02777778</v>
   <v>       0.13888889      0.05555556      0.02777778</v>
   <v>       0.16666667      0.05555556      0.02777778</v>
   <v>       0.19444444      0.05555556      0.02777778</v>
   <v>       0.22222222      0.05555556      0.02777778</v>
   <v>       0.25000000      0.05555556      0.02777778</v>
   <v>       0.27777778      0.05555556      0.02777778</v>
   <v>       0.30555556      0.05555556      0.02777778</v>
   <v>       0.33333333      0.05555556      0.02777778</v>
   <v>       0.36111111      0.05555556      0.02777778</v>
   <v>       0.38888889      0.05555556      0.02777778</v>
   <v>       0.41666667      0.05555556      0.02777778</v>
   <v>       0.44444444      0.05555556      0.02777778</v>
   <v>       0.47222222      0.05555556      0.02777778</v>
   <v>       0.50000000      0.05555556      0.02777778</v>
   <v>       0.08333333      0.08333333      0.02777778</v>
   <v>       0.11111111      0.08333333      0.02777778</v>
   <v>       0.13888889      0.08333333      0.02777778</v>
   <v>       0.16666667      0.08333333      0.02777778</v>
   <v>       0.19444444      0.08333333      0.02777778</v>
   <v>       0.22222222      0.08333333      0.02777778</v>
   <v>       0.25000000      0.08333333      0.02777778</v>
   <v>       0.27777778      0.08333333      0.02777778</v>
   <v>       0.30555556      0.08333333      0.02777778</v>
   <v>       0.33333333      0.08333333      0.02777778</v>
   <v>       0.36111111      0.08333333      0.02777778</v>
   <v>       0.38888889      0.08333333      0.02777778</v>
   <v>       0.41666667      0.08333333      0.02777778</v>
   <v>       0.44444444      0.08333333      0.02777778</v>
   <v>       0.47222222      0.08333333      0.02777778</v>
   <v>       0.50000000      0.08333333      0.02777778</v>
   <v>       0.11111111      0.11111111      0.02777778</v>
   <v>       0.13888889      0.11111111      0.02777778</v>
   <v>       0.16666667      0.11111111      0.02777778</v>
   <v>       0.19444444      0.11111111      0.02777778</v>
   <v>       0.22222222      0.11111111      0.02777778</v>
   <v>       0.25000000      0.11111111      0.02777778</v>
   <v>       0.27777778      0.11111111      0.02777778</v>
   <v>       0.30555556      0.11111111      0.02777778</v>
   <v>       0.33333333      0.11111111      0.02777778</v>
   <v>       0.36111111      0.11111111      0.02777778</v>
   <v>       0.38888889      0.11111111      0.02777778</v>
   <v>       0.41666667      0.11111111      0.02777778</v>
   <v>       0.44444444      0.11111111      0.02777778</v>
   <v>       0.47222222      0.11111111      0.02777778</v>
   <v>       0.50000000      0.11111111      0.02777778</v>
   <v>       0.13888889      0.13888889      0.02777778</v>
   <v>       0.16666667      0.13888889      0.02777778</v>
   <v>       0.19444444      0.13888889      0.02777778</v>
   <v>       0.22222222      0.13888889      0.02777778</v>
   <v>       0.25000000      0.13888889      0.02777778</v>
   <v>       0.27777778      0.13888889      0.02777778</v>
   <v>       0.30555556      0.13888889      0.02777778</v>
   <v>       0.33333333      0.13888889      0.02777778</v>
   <v>       0.36111111      0.13888889      0.02777778</v>
   <v>       0.38888889      0.13888889      0.02777778</v>
   <v>       0.41666667      0.13888889      0.02777778</v>
   <v>       0.44444444      0.13888889      0.02777778</v>
   <v>       0.47222222      0.13888889      0.02777778</v>
   <v>       0.50000000      0.13888889      0.02777778</v>
   <v>       0.16666667      0.16666667      0.02777778</v>
   <v>       0.19444444      0.16666667      0.02777778</v>
   <v>       0.22222222      0.16666667      0.02777778</v>
   <v>       0.25000000      0.16666667      0.02777778</v>
   <v>       0.27777778      0.16666667      0.02777778</v>
   <v>       0.30555556      0.16666667      0.02777778</v>
   <v>       0.33333333      0.16666667      0.02777778</v>
   <v>       0.36111111      0.16666667      0.02777778</v>
   <v>       0.38888889      0.16666667      0.02777778</v>
   <v>       0.41666667      0.16666667      0.02777778</v>
   <v>       0.44444444      0.16666667      0.02777778</v>
   <v>       0.47222222      0.16666667      0.02777778</v>
   <v>       0.50000000      0.16666667      0.02777778</v>
   <v>       0.19444444      0.19444444      0.02777778</v>
   <v>       0.22222222      0.19444444      0.02777778</v>
   <v>       0.25000000      0.19444444      0.02777778</v>
   <v>       0.27777778      0.19444444      0.02777778</v>
   <v>       0.30555556      0.19444444      0.02777778</v>
   <v>       0.33333333      0.19444444      0.02777778</v>
   <v>       0.36111111      0.19444444      0.02777778</v>
   <v>       0.38888889      0.19444444      0.02777778</v>
   <v>       0.41666667      0.19444444      0.02777778</v>
   <v>       0.44444444      0.19444444      0.02777778</v>
   <v>       0.47222222      0.19444444      0.02777778</v>
   <v>       0.50000000      0.19444444      0.02777778</v>
   <v>       0.22222222      0.22222222      0.02777778</v>
   <v>       0.25000000      0.22222222      0.02777778</v>
   <v>       0.27777778      0.22222222      0.02777778</v>
   <v>       0.30555556      0.22222222      0.02777778</v>
   <v>       0.33333333      0.22222222      0.02777778</v>
   <v>       0.36111111      0.22222222      0.02777778</v>
   <v>       0.38888889      0.22222222      0.02777778</v>
   <v>       0.41666667      0.22222222      0.02777778</v>
   <v>       0.44444444      0.22222222      0.02777778</v>
   <v>       0.47222222      0.22222222      0.02777778</v>
   <v>       0.50000000      0.22222222      0.02777778</v>
   <v>       0.25000000      0.25000000      0.02777778</v>
   <v>       0.27777778      0.25000000      0.02777778</v>
   <v>       0.30555556      0.25000000      0.02777778</v>
   <v>       0.33333333      0.25000000      0.02777778</v>
   <v>       0.36111111      0.25000000      0.02777778</v>
   <v>       0.38888889      0.25000000      0.02777778</v>
   <v>       0.41666667      0.25000000      0.02777778</v>
   <v>       0.44444444      0.25000000      0.02777778</v>
   <v>       0.47222222      0.25000000      0.02777778</v>
   <v>       0.50000000      0.25000000      0.02777778</v>
   <v>       0.27777778      0.27777778      0.02777778</v>
   <v>       0.30555556      0.27777778      0.02777778</v>
   <v>       0.33333333      0.27777778      0.02777778</v>
   <v>       0.36111111      0.27777778      0.02777778</v>
   <v>       0.38888889      0.27777778      0.02777778</v>
   <v>       0.41666667      0.27777778      0.02777778</v>
   <v>       0.44444444      0.27777778      0.02777778</v>
   <v>       0.47222222      0.27777778      0.02777778</v>
   <v>       0.50000000      0.27777778      0.02777778</v>
   <v>       0.30555556      0.30555556      0.02777778</v>
   <v>       0.33333333      0.30555556      0.02777778</v>
   <v>       0.36111111      0.30555556      0.02777778</v>
   <v>       0.38888889      0.30555556      0.02777778</v>
   <v>       0.41666667      0.30555556      0.02777778</v>
   <v>       0.44444444      0.30555556      0.02777778</v>
   <v>       0.47222222      0.30555556      0.02777778</v>
   <v>       0.50000000      0.30555556      0.02777778</v>
   <v>       0.33333333      0.33333333      0.02777778</v>
   <v>       0.36111111      0.33333333      0.02777778</v>
   <v>       0.38888889      0.33333333      0.02777778</v>
   <v>       0.41666667      0.33333333      0.02777778</v>
   <v>       0.44444444      0.33333333      0.02777778</v>
   <v>       0.47222222      0.33333333      0.02777778</v>
   <v>       0.50000000      0.33333333      0.02777778</v>
   <v>       0.36111111      0.36111111      0.02777778</v>
   <v>       0.38888889      0.36111111      0.02777778</v>
   <v>       0.41666667      0.36111111      0.02777778</v>
   <v>       0.44444444      0.36111111      0.02777778</v>
   <v>       0.47222222      0.36111111      0.02777778</v>
   <v>       0.50000000      0.36111111      0.02777778</v>
   <v>       0.38888889      0.38888889      0.02777778</v>
   <v>       0.41666667      0.38888889      0.02777778</v>
   <v>       0.44444444      0.38888889      0.02777778</v>
   <v>       0.47222222      0.38888889      0.02777778</v>
   <v>       0.50000000      0.38888889      0.02777778</v>
   <v>       0.41666667      0.41666667      0.02777778</v>
   <v>       0.44444444      0.41666667      0.02777778</v>
   <v>       0.47222222      0.41666667      0.02777778</v>
   <v>       0.50000000      0.41666667      0.02777778</v>
   <v>       0.44444444      0.44444444      0.02777778</v>
   <v>       0.47222222      0.44444444      0.02777778</v>
   <v>       0.50000000      0.44444444      0.02777778</v>
   <v>       0.47222222      0.47222222      0.02777778</v>
   <v>       0.50000000      0.47222222      0.02777778</v>
   <v>       0.50000000      0.50000000      0.02777778</v>
   <v>       0.05555556      0.05555556      0.05555556</v>
   <v>       0.08333333      0.05555556      0.05555556</v>
   <v>       0.11111111      0.05555556      0.05555556</v>
   <v>       0.13888889      0.05555556      0.05555556</v>
   <v>       0.16666667      0.05555556      0.05555556</v>
   <v>       0.19444444      0.05555556      0.05555556</v>
   <v>       0.22222222      0.05555556      0.05555556</v>
   <v>       0.25000000      0.05555556      0.05555556</v>
   <v>       0.27777778      0.05555556      0.05555556</v>
   <v>       0.30555556      0.05555556      0.05555556</v>
   <v>       0.33333333      0.05555556      0.05555556</v>
   <v>       0.36111111      0.05555556      0.05555556</v>
   <v>       0.38888889      0.05555556      0.05555556</v>
   <v>       0.41666667      0.05555556      0.05555556</v>
   <v>       0.44444444      0.05555556      0.05555556</v>
   <v>       0.47222222      0.05555556      0.05555556</v>
   <v>       0.50000000      0.05555556      0.05555556</v>
   <v>       0.08333333      0.08333333      0.05555556</v>
   <v>       0.11111111      0.08333333      0.05555556</v>
   <v>       0.13888889      0.08333333      0.05555556</v>
   <v>       0.16666667      0.08333333      0.05555556</v>
   <v>       0.19444444      0.08333333      0.05555556</v>
   <v>       0.22222222      0.08333333      0.05555556</v>
   <v>       0.25000000      0.08333333      0.05555556</v>
   <v>       0.27777778      0.08333333      0.05555556</v>
   <v>       0.30555556      0.08333333      0.05555556</v>
   <v>       0.33333333      0.08333333      0.05555556</v>
   <v>       0.36111111      0.08333333      0.05555556</v>
   <v>       0.38888889      0.08333333      0.05555556</v>
   <v>       0.41666667      0.08333333      0.05555556</v>
   <v>       0.44444444      0.08333333      0.05555556</v>
   <v>       0.47222222      0.08333333      0.05555556</v>
   <v>       0.50000000      0.08333333      0.05555556</v>
   <v>       0.11111111      0.11111111      0.05555556</v>
   <v>       0.13888889      0.11111111      0.05555556</v>
   <v>       0.16666667      0.11111111      0.05555556</v>
   <v>       0.19444444      0.11111111      0.05555556</v>
   <v>       0.22222222      0.11111111      0.05555556</v>
   <v>       0.25000000      0.11111111      0.05555556</v>
   <v>       0.27777778      0.11111111      0.05555556</v>
   <v>       0.30555556      0.11111111      0.05555556</v>
   <v>       0.33333333      0.11111111      0.05555556</v>
   <v>       0.36111111      0.11111111      0.05555556</v>
   <v>       0.38888889      0.11111111      0.05555556</v>
   <v>       0.41666667      0.11111111      0.05555556</v>
   <v>       0.44444444      0.11111111      0.05555556</v>
   <v>       0.47222222      0.11111111      0.05555556</v>
   <v>       0.50000000      0.11111111      0.05555556</v>
   <v>       0.13888889      0.13888889      0.05555556</v>
   <v>       0.16666667      0.13888889      0.05555556</v>
   <v>       0.19444444      0.13888889      0.05555556</v>
   <v>       0.22222222      0.13888889      0.05555556</v>
   <v>       0.25000000      0.13888889      0.05555556</v>
   <v>       0.27777778      0.13888889      0.05555556</v>
   <v>       0.30555556      0.13888889      0.05555556</v>
   <v>       0.33333333      0.13888889      0.05555556</v>
   <v>       0.36111111      0.13888889      0.05555556</v>
   <v>       0.38888889      0.13888889      0.05555556</v>
   <v>       0.41666667      0.13888889      0.05555556</v>
   <v>       0.44444444      0.13888889      0.05555556</v>
   <v>       0.47222222      0.13888889      0.05555556</v>
   <v>       0.50000000      0.13888889      0.05555556</v>
   <v>       0.16666667      0.16666667      0.05555556</v>
   <v>       0.19444444      0.16666667      0.05555556</v>
   <v>       0.22222222      0.16666667      0.05555556</v>
   <v>       0.25000000      0.16666667      0.05555556</v>
   <v>       0.27777778      0.16666667      0.05555556</v>
   <v>       0.30555556      0.16666667      0.05555556</v>
   <v>       0.33333333      0.16666667      0.05555556</v>
   <v>       0.36111111      0.16666667      0.05555556</v>
   <v>       0.38888889      0.16666667      0.05555556</v>
   <v>       0.41666667      0.16666667      0.05555556</v>
   <v>       0.44444444      0.16666667      0.05555556</v>
   <v>       0.47222222      0.16666667      0.05555556</v>
   <v>       0.50000000      0.16666667      0.05555556</v>
   <v>       0.19444444      0.19444444      0.05555556</v>
   <v>       0.22222222      0.19444444      0.05555556</v>
   <v>       0.25000000      0.19444444      0.05555556</v>
   <v>       0.27777778      0.19444444      0.05555556</v>
   <v>       0.30555556      0.19444444      0.05555556</v>
   <v>       0.33333333      0.19444444      0.05555556</v>
   <v>       0.36111111      0.19444444      0.05555556</v>
   <v>       0.38888889      0.19444444      0.05555556</v>
   <v>       0.41666667      0.19444444      0.05555556</v>
   <v>       0.44444444      0.19444444      0.05555556</v>
   <v>       0.47222222      0.19444444      0.05555556</v>
   <v>       0.50000000      0.19444444      0.05555556</v>
   <v>       0.22222222      0.22222222      0.05555556</v>
   <v>       0.25000000      0.22222222      0.05555556</v>
   <v>       0.27777778      0.22222222      0.05555556</v>
   <v>       0.30555556      0.22222222      0.05555556</v>
   <v>       0.33333333      0.22222222      0.05555556</v>
   <v>       0.36111111      0.22222222      0.05555556</v>
   <v>       0.38888889      0.22222222      0.05555556</v>
   <v>       0.41666667      0.22222222      0.05555556</v>
   <v>       0.44444444      0.22222222      0.05555556</v>
   <v>       0.47222222      0.22222222      0.05555556</v>
   <v>       0.50000000      0.22222222      0.05555556</v>
   <v>       0.25000000      0.25000000      0.05555556</v>
   <v>       0.27777778      0.25000000      0.05555556</v>
   <v>       0.30555556      0.25000000      0.05555556</v>
   <v>       0.33333333      0.25000000      0.05555556</v>
   <v>       0.36111111      0.25000000      0.05555556</v>
   <v>       0.38888889      0.25000000      0.05555556</v>
   <v>       0.41666667      0.25000000      0.05555556</v>
   <v>       0.44444444      0.25000000      0.05555556</v>
   <v>       0.47222222      0.25000000      0.05555556</v>
   <v>       0.50000000      0.25000000      0.05555556</v>
   <v>       0.27777778      0.27777778      0.05555556</v>
   <v>       0.30555556      0.27777778      0.05555556</v>
   <v>       0.33333333      0.27777778      0.05555556</v>
   <v>       0.36111111      0.27777778      0.05555556</v>
   <v>       0.38888889      0.27777778      0.05555556</v>
   <v>       0.41666667      0.27777778      0.05555556</v>
   <v>       0.44444444      0.27777778      0.05555556</v>
   <v>       0.47222222      0.27777778      0.05555556</v>
   <v>       0.50000000      0.27777778      0.05555556</v>
   <v>       0.30555556      0.30555556      0.05555556</v>
   <v>       0.33333333      0.30555556      0.05555556</v>
   <v>       0.36111111      0.30555556      0.05555556</v>
   <v>       0.38888889      0.30555556      0.05555556</v>
   <v>       0.41666667      0.30555556      0.05555556</v>
   <v>       0.44444444      0.30555556      0.05555556</v>
   <v>       0.47222222      0.30555556      0.05555556</v>
   <v>       0.50000000      0.30555556      0.05555556</v>
   <v>       0.33333333      0.33333333      0.05555556</v>
   <v>       0.36111111      0.33333333      0.05555556</v>
   <v>       0.38888889      0.33333333      0.05555556</v>
   <v>       0.41666667      0.33333333      0.05555556</v>
   <v>       0.44444444      0.33333333      0.05555556</v>
   <v>       0.47222222      0.33333333      0.05555556</v>
   <v>       0.50000000      0.33333333      0.05555556</v>
   <v>       0.36111111      0.36111111      0.05555556</v>
   <v>       0.38888889      0.36111111      0.05555556</v>
   <v>       0.41666667      0.36111111      0.05555556</v>
   <v>       0.44444444      0.36111111      0.05555556</v>
   <v>       0.47222222      0.36111111      0.05555556</v>
   <v>       0.50000000      0.36111111      0.05555556</v>
   <v>       0.38888889      0.38888889      0.05555556</v>
   <v>       0.41666667      0.38888889      0.05555556</v>
   <v>       0.44444444      0.38888889      0.05555556</v>
   <v>       0.47222222      0.38888889      0.05555556</v>
   <v>       0.50000000      0.38888889      0.05555556</v>
   <v>       0.41666667      0.41666667      0.05555556</v>
   <v>       0.44444444      0.41666667      0.05555556</v>
   <v>       0.47222222      0.41666667      0.05555556</v>
   <v>       0.50000000      0.41666667      0.05555556</v>
   <v>       0.44444444      0.44444444      0.05555556</v>
   <v>       0.47222222      0.44444444      0.05555556</v>
   <v>       0.50000000      0.44444444      0.05555556</v>
   <v>       0.47222222      0.47222222      0.05555556</v>
   <v>       0.50000000      0.47222222      0.05555556</v>
   <v>       0.50000000      0.50000000      0.05555556</v>
   <v>       0.08333333      0.08333333      0.08333333</v>
   <v>       0.11111111      0.08333333      0.08333333</v>
   <v>       0.13888889      0.08333333      0.08333333</v>
   <v>       0.16666667      0.08333333      0.08333333</v>
   <v>       0.19444444      0.08333333      0.08333333</v>
   <v>       0.22222222      0.08333333      0.08333333</v>
   <v>       0.25000000      0.08333333      0.08333333</v>
   <v>       0.27777778      0.08333333      0.08333333</v>
   <v>       0.30555556      0.08333333      0.08333333</v>
   <v>       0.33333333      0.08333333      0.08333333</v>
   <v>       0.36111111      0.08333333      0.08333333</v>
   <v>       0.38888889      0.08333333      0.08333333</v>
   <v>       0.41666667      0.08333333      0.08333333</v>
   <v>       0.44444444      0.08333333      0.08333333</v>
   <v>       0.47222222      0.08333333      0.08333333</v>
   <v>       0.50000000      0.08333333      0.08333333</v>
   <v>       0.11111111      0.11111111      0.08333333</v>
   <v>       0.13888889      0.11111111      0.08333333</v>
   <v>       0.16666667      0.11111111      0.08333333</v>
   <v>       0.19444444      0.11111111      0.08333333</v>
   <v>       0.22222222      0.11111111      0.08333333</v>
   <v>       0.25000000      0.11111111      0.08333333</v>
   <v>       0.27777778      0.11111111      0.08333333</v>
   <v>       0.30555556      0.11111111      0.08333333</v>
   <v>       0.33333333      0.11111111      0.08333333</v>
   <v>       0.36111111      0.11111111      0.08333333</v>
   <v>       0.38888889      0.11111111      0.08333333</v>
   <v>       0.41666667      0.11111111      0.08333333</v>
   <v>       0.44444444      0.11111111      0.08333333</v>
   <v>       0.47222222      0.11111111      0.08333333</v>
   <v>       0.50000000      0.11111111      0.08333333</v>
   <v>       0.13888889      0.13888889      0.08333333</v>
   <v>       0.16666667      0.13888889      0.08333333</v>
   <v>       0.19444444      0.13888889      0.08333333</v>
   <v>       0.22222222      0.13888889      0.08333333</v>
   <v>       0.25000000      0.13888889      0.08333333</v>
   <v>       0.27777778      0.13888889      0.08333333</v>
   <v>       0.30555556      0.13888889      0.08333333</v>
   <v>       0.33333333      0.13888889      0.08333333</v>
   <v>       0.36111111      0.13888889      0.08333333</v>
   <v>       0.38888889      0.13888889      0.08333333</v>
   <v>       0.41666667      0.13888889      0.08333333</v>
   <v>       0.44444444      0.13888889      0.08333333</v>
   <v>       0.47222222      0.13888889      0.08333333</v>
   <v>       0.50000000      0.13888889      0.08333333</v>
   <v>       0.16666667      0.16666667      0.08333333</v>
   <v>       0.19444444      0.16666667      0.08333333</v>
   <v>       0.22222222      0.16666667      0.08333333</v>
   <v>       0.25000000      0.16666667      0.08333333</v>
   <v>       0.27777778      0.16666667      0.08333333</v>
   <v>       0.30555556      0.16666667      0.08333333</v>
   <v>       0.33333333      0.16666667      0.08333333</v>
   <v>       0.36111111      0.16666667      0.08333333</v>
   <v>       0.38888889      0.16666667      0.08333333</v>
   <v>       0.41666667      0.16666667      0.08333333</v>
   <v>       0.44444444      0.16666667      0.08333333</v>
   <v>       0.47222222      0.16666667      0.08333333</v>
   <v>       0.50000000      0.16666667      0.08333333</v>
   <v>       0.19444444      0.19444444      0.08333333</v>
   <v>       0.22222222      0.19444444      0.08333333</v>
   <v>       0.25000000      0.19444444      0.08333333</v>
   <v>       0.27777778      0.19444444      0.08333333</v>
   <v>       0.30555556      0.19444444      0.08333333</v>
   <v>       0.33333333      0.19444444      0.08333333</v>
   <v>       0.36111111      0.19444444      0.08333333</v>
   <v>       0.38888889      0.19444444      0.08333333</v>
   <v>       0.41666667      0.19444444      0.08333333</v>
   <v>       0.44444444      0.19444444      0.08333333</v>
   <v>       0.47222222      0.19444444      0.08333333</v>
   <v>       0.50000000      0.19444444      0.08333333</v>
   <v>       0.22222222      0.22222222      0.08333333</v>
   <v>       0.25000000      0.22222222      0.08333333</v>
   <v>       0.27777778      0.22222222      0.08333333</v>
   <v>       0.30555556      0.22222222      0.08333333</v>
   <v>       0.33333333      0.22222222      0.08333333</v>
   <v>       0.36111111      0.22222222      0.08333333</v>
   <v>       0.38888889      0.22222222      0.08333333</v>
   <v>       0.41666667      0.22222222      0.08333333</v>
   <v>       0.44444444      0.22222222      0.08333333</v>
   <v>       0.47222222      0.22222222      0.08333333</v>
   <v>       0.50000000      0.22222222      0.08333333</v>
   <v>       0.25000000      0.25000000      0.08333333</v>
   <v>       0.27777778      0.25000000      0.08333333</v>
   <v>       0.30555556      0.25000000      0.08333333</v>
   <v>       0.33333333      0.25000000      0.08333333</v>
   <v>       0.36111111      0.25000000      0.08333333</v>
   <v>       0.38888889      0.25000000      0.08333333</v>
   <v>       0.41666667      0.25000000      0.08333333</v>
   <v>       0.44444444      0.25000000      0.08333333</v>
   <v>       0.47222222      0.25000000      0.08333333</v>
   <v>       0.50000000      0.25000000      0.08333333</v>
   <v>       0.27777778      0.27777778      0.08333333</v>
   <v>       0.30555556      0.27777778      0.08333333</v>
   <v>       0.33333333      0.27777778      0.08333333</v>
   <v>       0.36111111      0.27777778      0.08333333</v>
   <v>       0.38888889      0.27777778      0.08333333</v>
   <v>       0.41666667      0.27777778      0.08333333</v>
   <v>       0.44444444      0.27777778      0.08333333</v>
   <v>       0.47222222      0.27777778      0.08333333</v>
   <v>       0.50000000      0.27777778      0.08333333</v>
   <v>       0.30555556      0.30555556      0.08333333</v>
   <v>       0.33333333      0.30555556      0.08333333</v>
   <v>       0.36111111      0.30555556      0.08333333</v>
   <v>       0.38888889      0.30555556      0.08333333</v>
   <v>       0.41666667      0.30555556      0.08333333</v>
   <v>       0.44444444      0.30555556      0.08333333</v>
   <v>       0.47222222      0.30555556      0.08333333</v>
   <v>       0.50000000      0.30555556      0.08333333</v>
   <v>       0.33333333      0.33333333      0.08333333</v>
   <v>       0.36111111      0.33333333      0.08333333</v>
   <v>       0.38888889      0.33333333      0.08333333</v>
   <v>       0.41666667      0.33333333      0.08333333</v>
   <v>       0.44444444      0.33333333      0.08333333</v>
   <v>       0.47222222      0.33333333      0.08333333</v>
   <v>       0.50000000      0.33333333      0.08333333</v>
   <v>       0.36111111      0.36111111      0.08333333</v>
   <v>       0.38888889      0.36111111      0.08333333</v>
   <v>       0.41666667      0.36111111      0.08333333</v>
   <v>       0.44444444      0.36111111      0.08333333</v>
   <v>       0.47222222      0.36111111      0.08333333</v>
   <v>       0.50000000      0.36111111      0.08333333</v>
   <v>       0.38888889      0.38888889      0.08333333</v>
   <v>       0.41666667      0.38888889      0.08333333</v>
   <v>       0.44444444      0.38888889      0.08333333</v>
   <v>       0.47222222      0.38888889      0.08333333</v>
   <v>       0.50000000      0.38888889      0.08333333</v>
   <v>       0.41666667      0.41666667      0.08333333</v>
   <v>       0.44444444      0.41666667      0.08333333</v>
   <v>       0.47222222      0.41666667      0.08333333</v>
   <v>       0.50000000      0.41666667      0.08333333</v>
   <v>       0.44444444      0.44444444      0.08333333</v>
   <v>       0.47222222      0.44444444      0.08333333</v>
   <v>       0.50000000      0.44444444      0.08333333</v>
   <v>       0.47222222      0.47222222      0.08333333</v>
   <v>       0.50000000      0.47222222      0.08333333</v>
   <v>       0.50000000      0.50000000      0.08333333</v>
   <v>       0.11111111      0.11111111      0.11111111</v>
   <v>       0.13888889      0.11111111      0.11111111</v>
   <v>       0.16666667      0.11111111      0.11111111</v>
   <v>       0.19444444      0.11111111      0.11111111</v>
   <v>       0.22222222      0.11111111      0.11111111</v>
   <v>       0.25000000      0.11111111      0.11111111</v>
   <v>       0.27777778      0.11111111      0.11111111</v>
   <v>       0.30555556      0.11111111      0.11111111</v>
   <v>       0.33333333      0.11111111      0.11111111</v>
   <v>       0.36111111      0.11111111      0.11111111</v>
   <v>       0.38888889      0.11111111      0.11111111</v>
   <v>       0.41666667      0.11111111      0.11111111</v>
   <v>       0.44444444      0.11111111      0.11111111</v>
   <v>       0.47222222      0.11111111      0.11111111</v>
   <v>       0.50000000      0.11111111      0.11111111</v>
   <v>       0.13888889      0.13888889      0.11111111</v>
   <v>       0.16666667      0.13888889      0.11111111</v>
   <v>       0.19444444      0.13888889      0.11111111</v>
   <v>       0.22222222      0.13888889      0.11111111</v>
   <v>       0.25000000      0.13888889      0.11111111</v>
   <v>       0.27777778      0.13888889      0.11111111</v>
   <v>       0.30555556      0.13888889      0.11111111</v>
   <v>       0.33333333      0.13888889      0.11111111</v>
   <v>       0.36111111      0.13888889      0.11111111</v>
   <v>       0.38888889      0.13888889      0.11111111</v>
   <v>       0.41666667      0.13888889      0.11111111</v>
   <v>       0.44444444      0.13888889      0.11111111</v>
   <v>       0.47222222      0.13888889      0.11111111</v>
   <v>       0.50000000      0.13888889      0.11111111</v>
   <v>       0.16666667      0.16666667      0.11111111</v>
   <v>       0.19444444      0.16666667      0.11111111</v>
   <v>       0.22222222      0.16666667      0.11111111</v>
   <v>       0.25000000      0.16666667      0.11111111</v>
   <v>       0.27777778      0.16666667      0.11111111</v>
   <v>       0.30555556      0.16666667      0.11111111</v>
   <v>       0.33333333      0.16666667      0.11111111</v>
   <v>       0.36111111      0.16666667      0.11111111</v>
   <v>       0.38888889      0.16666667      0.11111111</v>
   <v>       0.41666667      0.16666667      0.11111111</v>
   <v>       0.44444444      0.16666667      0.11111111</v>
   <v>       0.47222222      0.16666667      0.11111111</v>
   <v>       0.50000000      0.16666667      0.11111111</v>
   <v>       0.19444444      0.19444444      0.11111111</v>
   <v>       0.22222222      0.19444444      0.11111111</v>
   <v>       0.25000000      0.19444444      0.11111111</v>
   <v>       0.27777778      0.19444444      0.11111111</v>
   <v>       0.30555556      0.19444444      0.11111111</v>
   <v>       0.33333333      0.19444444      0.11111111</v>
   <v>       0.36111111      0.19444444      0.11111111</v>
   <v>       0.38888889      0.19444444      0.11111111</v>
   <v>       0.41666667      0.19444444      0.11111111</v>
   <v>       0.44444444      0.19444444      0.11111111</v>
   <v>       0.47222222      0.19444444      0.11111111</v>
   <v>       0.50000000      0.19444444      0.11111111</v>
   <v>       0.22222222      0.22222222      0.11111111</v>
   <v>       0.25000000      0.22222222      0.11111111</v>
   <v>       0.27777778      0.22222222      0.11111111</v>
   <v>       0.30555556      0.22222222      0.11111111</v>
   <v>       0.33333333      0.22222222      0.11111111</v>
   <v>       0.36111111      0.22222222      0.11111111</v>
   <v>       0.38888889      0.22222222      0.11111111</v>
   <v>       0.41666667      0.22222222      0.11111111</v>
   <v>       0.44444444      0.22222222      0.11111111</v>
   <v>       0.47222222      0.22222222      0.11111111</v>
   <v>       0.50000000      0.22222222      0.11111111</v>
   <v>       0.25000000      0.25000000      0.11111111</v>
   <v>       0.27777778      0.25000000      0.11111111</v>
   <v>       0.30555556      0.25000000      0.11111111</v>
   <v>       0.33333333      0.25000000      0.11111111</v>
   <v>       0.36111111      0.25000000      0.11111111</v>
   <v>       0.38888889      0.25000000      0.11111111</v>
   <v>       0.41666667      0.25000000      0.11111111</v>
   <v>       0.44444444      0.25000000      0.11111111</v>
   <v>       0.47222222      0.25000000      0.11111111</v>
   <v>       0.50000000      0.25000000      0.11111111</v>
   <v>       0.27777778      0.27777778      0.11111111</v>
   <v>       0.30555556      0.27777778      0.11111111</v>
   <v>       0.33333333      0.27777778      0.11111111</v>
   <v>       0.36111111      0.27777778      0.11111111</v>
   <v>       0.38888889      0.27777778      0.11111111</v>
   <v>       0.41666667      0.27777778      0.11111111</v>
   <v>       0.44444444      0.27777778      0.11111111</v>
   <v>       0.47222222      0.27777778      0.11111111</v>
   <v>       0.50000000      0.27777778      0.11111111</v>
   <v>       0.30555556      0.30555556      0.11111111</v>
   <v>       0.33333333      0.30555556      0.11111111</v>
   <v>       0.36111111      0.30555556      0.11111111</v>
   <v>       0.38888889      0.30555556      0.11111111</v>
   <v>       0.41666667      0.30555556      0.11111111</v>
   <v>       0.44444444      0.30555556      0.11111111</v>
   <v>       0.47222222      0.30555556      0.11111111</v>
   <v>       0.50000000      0.30555556      0.11111111</v>
   <v>       0.33333333      0.33333333      0.11111111</v>
   <v>       0.36111111      0.33333333      0.11111111</v>
   <v>       0.38888889      0.33333333      0.11111111</v>
   <v>       0.41666667      0.33333333      0.11111111</v>
   <v>       0.44444444      0.33333333      0.11111111</v>
   <v>       0.47222222      0.33333333      0.11111111</v>
   <v>       0.50000000      0.33333333      0.11111111</v>
   <v>       0.36111111      0.36111111      0.11111111</v>
   <v>       0.38888889      0.36111111      0.11111111</v>
   <v>       0.41666667      0.36111111      0.11111111</v>
   <v>       0.44444444      0.36111111      0.11111111</v>
   <v>       0.47222222      0.36111111      0.11111111</v>
   <v>       0.50000000      0.36111111      0.11111111</v>
   <v>       0.38888889      0.38888889      0.11111111</v>
   <v>       0.41666667      0.38888889      0.11111111</v>
   <v>       0.44444444      0.38888889      0.11111111</v>
   <v>       0.47222222      0.38888889      0.11111111</v>
   <v>       0.50000000      0.38888889      0.11111111</v>
   <v>       0.41666667      0.41666667      0.11111111</v>
   <v>       0.44444444      0.41666667      0.11111111</v>
   <v>       0.47222222      0.41666667      0.11111111</v>
   <v>       0.50000000      0.41666667      0.11111111</v>
   <v>       0.44444444      0.44444444      0.11111111</v>
   <v>       0.47222222      0.44444444      0.11111111</v>
   <v>       0.50000000      0.44444444      0.11111111</v>
   <v>       0.47222222      0.47222222      0.11111111</v>
   <v>       0.50000000      0.47222222      0.11111111</v>
   <v>       0.50000000      0.50000000      0.11111111</v>
   <v>       0.13888889      0.13888889      0.13888889</v>
   <v>       0.16666667      0.13888889      0.13888889</v>
   <v>       0.19444444      0.13888889      0.13888889</v>
   <v>       0.22222222      0.13888889      0.13888889</v>
   <v>       0.25000000      0.13888889      0.13888889</v>
   <v>       0.27777778      0.13888889      0.13888889</v>
   <v>       0.30555556      0.13888889      0.13888889</v>
   <v>       0.33333333      0.13888889      0.13888889</v>
   <v>       0.36111111      0.13888889      0.13888889</v>
   <v>       0.38888889      0.13888889      0.13888889</v>
   <v>       0.41666667      0.13888889      0.13888889</v>
   <v>       0.44444444      0.13888889      0.13888889</v>
   <v>       0.47222222      0.13888889      0.13888889</v>
   <v>       0.50000000      0.13888889      0.13888889</v>
   <v>       0.16666667      0.16666667      0.13888889</v>
   <v>       0.19444444      0.16666667      0.13888889</v>
   <v>       0.22222222      0.16666667      0.13888889</v>
   <v>       0.25000000      0.16666667      0.13888889</v>
   <v>       0.27777778      0.16666667      0.13888889</v>
   <v>       0.30555556      0.16666667      0.13888889</v>
   <v>       0.33333333      0.16666667      0.13888889</v>
   <v>       0.36111111      0.16666667      0.13888889</v>
   <v>       0.38888889      0.16666667      0.13888889</v>
   <v>       0.41666667      0.16666667      0.13888889</v>
   <v>       0.44444444      0.16666667      0.13888889</v>
   <v>       0.47222222      0.16666667      0.13888889</v>
   <v>       0.50000000      0.16666667      0.13888889</v>
   <v>       0.19444444      0.19444444      0.13888889</v>
   <v>       0.22222222      0.19444444      0.13888889</v>
   <v>       0.25000000      0.19444444      0.13888889</v>
   <v>       0.27777778      0.19444444      0.13888889</v>
   <v>       0.30555556      0.19444444      0.13888889</v>
   <v>       0.33333333      0.19444444      0.13888889</v>
   <v>       0.36111111      0.19444444      0.13888889</v>
   <v>       0.38888889      0.19444444      0.13888889</v>
   <v>       0.41666667      0.19444444      0.13888889</v>
   <v>       0.44444444      0.19444444      0.13888889</v>
   <v>       0.47222222      0.19444444      0.13888889</v>
   <v>       0.50000000      0.19444444      0.13888889</v>
   <v>       0.22222222      0.22222222      0.13888889</v>
   <v>       0.25000000      0.22222222      0.13888889</v>
   <v>       0.27777778      0.22222222      0.13888889</v>
   <v>       0.30555556      0.22222222      0.13888889</v>
   <v>       0.33333333      0.22222222      0.13888889</v>
   <v>       0.36111111      0.22222222      0.13888889</v>
   <v>       0.38888889      0.22222222      0.13888889</v>
   <v>       0.41666667      0.22222222      0.13888889</v>
   <v>       0.44444444      0.22222222      0.13888889</v>
   <v>       0.47222222      0.22222222      0.13888889</v>
   <v>       0.50000000      0.22222222      0.13888889</v>
   <v>       0.25000000      0.25000000      0.13888889</v>
   <v>       0.27777778      0.25000000      0.13888889</v>
   <v>       0.30555556      0.25000000      0.13888889</v>
   <v>       0.33333333      0.25000000      0.13888889</v>
   <v>       0.36111111      0.25000000      0.13888889</v>
   <v>       0.38888889      0.25000000      0.13888889</v>
   <v>       0.41666667      0.25000000      0.13888889</v>
   <v>       0.44444444      0.25000000      0.13888889</v>
   <v>       0.47222222      0.25000000      0.13888889</v>
   <v>       0.50000000      0.25000000      0.13888889</v>
   <v>       0.27777778      0.27777778      0.13888889</v>
   <v>       0.30555556      0.27777778      0.13888889</v>
   <v>       0.33333333      0.27777778      0.13888889</v>
   <v>       0.36111111      0.27777778      0.13888889</v>
   <v>       0.38888889      0.27777778      0.13888889</v>
   <v>       0.41666667      0.27777778      0.13888889</v>
   <v>       0.44444444      0.27777778      0.13888889</v>
   <v>       0.47222222      0.27777778      0.13888889</v>
   <v>       0.50000000      0.27777778      0.13888889</v>
   <v>       0.30555556      0.30555556      0.13888889</v>
   <v>       0.33333333      0.30555556      0.13888889</v>
   <v>       0.36111111      0.30555556      0.13888889</v>
   <v>       0.38888889      0.30555556      0.13888889</v>
   <v>       0.41666667      0.30555556      0.13888889</v>
   <v>       0.44444444      0.30555556      0.13888889</v>
   <v>       0.47222222      0.30555556      0.13888889</v>
   <v>       0.50000000      0.30555556      0.13888889</v>
   <v>       0.33333333      0.33333333      0.13888889</v>
   <v>       0.36111111      0.33333333      0.13888889</v>
   <v>       0.38888889      0.33333333      0.13888889</v>
   <v>       0.41666667      0.33333333      0.13888889</v>
   <v>       0.44444444      0.33333333      0.13888889</v>
   <v>       0.47222222      0.33333333      0.13888889</v>
   <v>       0.50000000      0.33333333      0.13888889</v>
   <v>       0.36111111      0.36111111      0.13888889</v>
   <v>       0.38888889      0.36111111      0.13888889</v>
   <v>       0.41666667      0.36111111      0.13888889</v>
   <v>       0.44444444      0.36111111      0.13888889</v>
   <v>       0.47222222      0.36111111      0.13888889</v>
   <v>       0.50000000      0.36111111      0.13888889</v>
   <v>       0.38888889      0.38888889      0.13888889</v>
   <v>       0.41666667      0.38888889      0.13888889</v>
   <v>       0.44444444      0.38888889      0.13888889</v>
   <v>       0.47222222      0.38888889      0.13888889</v>
   <v>       0.50000000      0.38888889      0.13888889</v>
   <v>       0.41666667      0.41666667      0.13888889</v>
   <v>       0.44444444      0.41666667      0.13888889</v>
   <v>       0.47222222      0.41666667      0.13888889</v>
   <v>       0.50000000      0.41666667      0.13888889</v>
   <v>       0.44444444      0.44444444      0.13888889</v>
   <v>       0.47222222      0.44444444      0.13888889</v>
   <v>       0.50000000      0.44444444      0.13888889</v>
   <v>       0.47222222      0.47222222      0.13888889</v>
   <v>       0.50000000      0.47222222      0.13888889</v>
   <v>       0.50000000      0.50000000      0.13888889</v>
   <v>       0.16666667      0.16666667      0.16666667</v>
   <v>       0.19444444      0.16666667      0.16666667</v>
   <v>       0.22222222      0.16666667      0.16666667</v>
   <v>       0.25000000      0.16666667      0.16666667</v>
   <v>       0.27777778      0.16666667      0.16666667</v>
   <v>       0.30555556      0.16666667      0.16666667</v>
   <v>       0.33333333      0.16666667      0.16666667</v>
   <v>       0.36111111      0.16666667      0.16666667</v>
   <v>       0.38888889      0.16666667      0.16666667</v>
   <v>       0.41666667      0.16666667      0.16666667</v>
   <v>       0.44444444      0.16666667      0.16666667</v>
   <v>       0.47222222      0.16666667      0.16666667</v>
   <v>       0.50000000      0.16666667      0.16666667</v>
   <v>       0.19444444      0.19444444      0.16666667</v>
   <v>       0.22222222      0.19444444      0.16666667</v>
   <v>       0.25000000      0.19444444      0.16666667</v>
   <v>       0.27777778      0.19444444      0.16666667</v>
   <v>       0.30555556      0.19444444      0.16666667</v>
   <v>       0.33333333      0.19444444      0.16666667</v>
   <v>       0.36111111      0.19444444      0.16666667</v>
   <v>       0.38888889      0.19444444      0.16666667</v>
   <v>       0.41666667      0.19444444      0.16666667</v>
   <v>       0.44444444      0.19444444      0.16666667</v>
   <v>       0.47222222      0.19444444      0.16666667</v>
   <v>       0.50000000      0.19444444      0.16666667</v>
   <v>       0.22222222      0.22222222      0.16666667</v>
   <v>       0.25000000      0.22222222      0.16666667</v>
   <v>       0.27777778      0.22222222      0.16666667</v>
   <v>       0.30555556      0.22222222      0.16666667</v>
   <v>       0.33333333      0.22222222      0.16666667</v>
   <v>       0.36111111      0.22222222      0.16666667</v>
   <v>       0.38888889      0.22222222      0.16666667</v>
   <v>       0.41666667      0.22222222      0.16666667</v>
   <v>       0.44444444      0.22222222      0.16666667</v>
   <v>       0.47222222      0.22222222      0.16666667</v>
   <v>       0.50000000      0.22222222      0.16666667</v>
   <v>       0.25000000      0.25000000      0.16666667</v>
   <v>       0.27777778      0.25000000      0.16666667</v>
   <v>       0.30555556      0.25000000      0.16666667</v>
   <v>       0.33333333      0.25000000      0.16666667</v>
   <v>       0.36111111      0.25000000      0.16666667</v>
   <v>       0.38888889      0.25000000      0.16666667</v>
   <v>       0.41666667      0.25000000      0.16666667</v>
   <v>       0.44444444      0.25000000      0.16666667</v>
   <v>       0.47222222      0.25000000      0.16666667</v>
   <v>       0.50000000      0.25000000      0.16666667</v>
   <v>       0.27777778      0.27777778      0.16666667</v>
   <v>       0.30555556      0.27777778      0.16666667</v>
   <v>       0.33333333      0.27777778      0.16666667</v>
   <v>       0.36111111      0.27777778      0.16666667</v>
   <v>       0.38888889      0.27777778      0.16666667</v>
   <v>       0.41666667      0.27777778      0.16666667</v>
   <v>       0.44444444      0.27777778      0.16666667</v>
   <v>       0.47222222      0.27777778      0.16666667</v>
   <v>       0.50000000      0.27777778      0.16666667</v>
   <v>       0.30555556      0.30555556      0.16666667</v>
   <v>       0.33333333      0.30555556      0.16666667</v>
   <v>       0.36111111      0.30555556      0.16666667</v>
   <v>       0.38888889      0.30555556      0.16666667</v>
   <v>       0.41666667      0.30555556      0.16666667</v>
   <v>       0.44444444      0.30555556      0.16666667</v>
   <v>       0.47222222      0.30555556      0.16666667</v>
   <v>       0.50000000      0.30555556      0.16666667</v>
   <v>       0.33333333      0.33333333      0.16666667</v>
   <v>       0.36111111      0.33333333      0.16666667</v>
   <v>       0.38888889      0.33333333      0.16666667</v>
   <v>       0.41666667      0.33333333      0.16666667</v>
   <v>       0.44444444      0.33333333      0.16666667</v>
   <v>       0.47222222      0.33333333      0.16666667</v>
   <v>       0.50000000      0.33333333      0.16666667</v>
   <v>       0.36111111      0.36111111      0.16666667</v>
   <v>       0.38888889      0.36111111      0.16666667</v>
   <v>       0.41666667      0.36111111      0.16666667</v>
   <v>       0.44444444      0.36111111      0.16666667</v>
   <v>       0.47222222      0.36111111      0.16666667</v>
   <v>       0.50000000      0.36111111      0.16666667</v>
   <v>       0.38888889      0.38888889      0.16666667</v>
   <v>       0.41666667      0.38888889      0.16666667</v>
   <v>       0.44444444      0.38888889      0.16666667</v>
   <v>       0.47222222      0.38888889      0.16666667</v>
   <v>       0.50000000      0.38888889      0.16666667</v>
   <v>       0.41666667      0.41666667      0.16666667</v>
   <v>       0.44444444      0.41666667      0.16666667</v>
   <v>       0.47222222      0.41666667      0.16666667</v>
   <v>       0.50000000      0.41666667      0.16666667</v>
   <v>       0.44444444      0.44444444      0.16666667</v>
   <v>       0.47222222      0.44444444      0.16666667</v>
   <v>       0.50000000      0.44444444      0.16666667</v>
   <v>       0.47222222      0.47222222      0.16666667</v>
   <v>       0.50000000      0.47222222      0.16666667</v>
   <v>       0.50000000      0.50000000      0.16666667</v>
   <v>       0.19444444      0.19444444      0.19444444</v>
   <v>       0.22222222      0.19444444      0.19444444</v>
   <v>       0.25000000      0.19444444      0.19444444</v>
   <v>       0.27777778      0.19444444      0.19444444</v>
   <v>       0.30555556      0.19444444      0.19444444</v>
   <v>       0.33333333      0.19444444      0.19444444</v>
   <v>       0.36111111      0.19444444      0.19444444</v>
   <v>       0.38888889      0.19444444      0.19444444</v>
   <v>       0.41666667      0.19444444      0.19444444</v>
   <v>       0.44444444      0.19444444      0.19444444</v>
   <v>       0.47222222      0.19444444      0.19444444</v>
   <v>       0.50000000      0.19444444      0.19444444</v>
   <v>       0.22222222      0.22222222      0.19444444</v>
   <v>       0.25000000      0.22222222      0.19444444</v>
   <v>       0.27777778      0.22222222      0.19444444</v>
   <v>       0.30555556      0.22222222      0.19444444</v>
   <v>       0.33333333      0.22222222      0.19444444</v>
   <v>       0.36111111      0.22222222      0.19444444</v>
   <v>       0.38888889      0.22222222      0.19444444</v>
   <v>       0.41666667      0.22222222      0.19444444</v>
   <v>       0.44444444      0.22222222      0.19444444</v>
   <v>       0.47222222      0.22222222      0.19444444</v>
   <v>       0.50000000      0.22222222      0.19444444</v>
   <v>       0.25000000      0.25000000      0.19444444</v>
   <v>       0.27777778      0.25000000      0.19444444</v>
   <v>       0.30555556      0.25000000      0.19444444</v>
   <v>       0.33333333      0.25000000      0.19444444</v>
   <v>       0.36111111      0.25000000      0.19444444</v>
   <v>       0.38888889      0.25000000      0.19444444</v>
   <v>       0.41666667      0.25000000      0.19444444</v>
   <v>       0.44444444      0.25000000      0.19444444</v>
   <v>       0.47222222      0.25000000      0.19444444</v>
   <v>       0.50000000      0.25000000      0.19444444</v>
   <v>       0.27777778      0.27777778      0.19444444</v>
   <v>       0.30555556      0.27777778      0.19444444</v>
   <v>       0.33333333      0.27777778      0.19444444</v>
   <v>       0.36111111      0.27777778      0.19444444</v>
   <v>       0.38888889      0.27777778      0.19444444</v>
   <v>       0.41666667      0.27777778      0.19444444</v>
   <v>       0.44444444      0.27777778      0.19444444</v>
   <v>       0.47222222      0.27777778      0.19444444</v>
   <v>       0.50000000      0.27777778      0.19444444</v>
   <v>       0.30555556      0.30555556      0.19444444</v>
   <v>       0.33333333      0.30555556      0.19444444</v>
   <v>       0.36111111      0.30555556      0.19444444</v>
   <v>       0.38888889      0.30555556      0.19444444</v>
   <v>       0.41666667      0.30555556      0.19444444</v>
   <v>       0.44444444      0.30555556      0.19444444</v>
   <v>       0.47222222      0.30555556      0.19444444</v>
   <v>       0.50000000      0.30555556      0.19444444</v>
   <v>       0.33333333      0.33333333      0.19444444</v>
   <v>       0.36111111      0.33333333      0.19444444</v>
   <v>       0.38888889      0.33333333      0.19444444</v>
   <v>       0.41666667      0.33333333      0.19444444</v>
   <v>       0.44444444      0.33333333      0.19444444</v>
   <v>       0.47222222      0.33333333      0.19444444</v>
   <v>       0.50000000      0.33333333      0.19444444</v>
   <v>       0.36111111      0.36111111      0.19444444</v>
   <v>       0.38888889      0.36111111      0.19444444</v>
   <v>       0.41666667      0.36111111      0.19444444</v>
   <v>       0.44444444      0.36111111      0.19444444</v>
   <v>       0.47222222      0.36111111      0.19444444</v>
   <v>       0.50000000      0.36111111      0.19444444</v>
   <v>       0.38888889      0.38888889      0.19444444</v>
   <v>       0.41666667      0.38888889      0.19444444</v>
   <v>       0.44444444      0.38888889      0.19444444</v>
   <v>       0.47222222      0.38888889      0.19444444</v>
   <v>       0.50000000      0.38888889      0.19444444</v>
   <v>       0.41666667      0.41666667      0.19444444</v>
   <v>       0.44444444      0.41666667      0.19444444</v>
   <v>       0.47222222      0.41666667      0.19444444</v>
   <v>       0.50000000      0.41666667      0.19444444</v>
   <v>       0.44444444      0.44444444      0.19444444</v>
   <v>       0.47222222      0.44444444      0.19444444</v>
   <v>       0.50000000      0.44444444      0.19444444</v>
   <v>       0.47222222      0.47222222      0.19444444</v>
   <v>       0.50000000      0.47222222      0.19444444</v>
   <v>       0.50000000      0.50000000      0.19444444</v>
   <v>       0.22222222      0.22222222      0.22222222</v>
   <v>       0.25000000      0.22222222      0.22222222</v>
   <v>       0.27777778      0.22222222      0.22222222</v>
   <v>       0.30555556      0.22222222      0.22222222</v>
   <v>       0.33333333      0.22222222      0.22222222</v>
   <v>       0.36111111      0.22222222      0.22222222</v>
   <v>       0.38888889      0.22222222      0.22222222</v>
   <v>       0.41666667      0.22222222      0.22222222</v>
   <v>       0.44444444      0.22222222      0.22222222</v>
   <v>       0.47222222      0.22222222      0.22222222</v>
   <v>       0.50000000      0.22222222      0.22222222</v>
   <v>       0.25000000      0.25000000      0.22222222</v>
   <v>       0.27777778      0.25000000      0.22222222</v>
   <v>       0.30555556      0.25000000      0.22222222</v>
   <v>       0.33333333      0.25000000      0.22222222</v>
   <v>       0.36111111      0.25000000      0.22222222</v>
   <v>       0.38888889      0.25000000      0.22222222</v>
   <v>       0.41666667      0.25000000      0.22222222</v>
   <v>       0.44444444      0.25000000      0.22222222</v>
   <v>       0.47222222      0.25000000      0.22222222</v>
   <v>       0.50000000      0.25000000      0.22222222</v>
   <v>       0.27777778      0.27777778      0.22222222</v>
   <v>       0.30555556      0.27777778      0.22222222</v>
   <v>       0.33333333      0.27777778      0.22222222</v>
   <v>       0.36111111      0.27777778      0.22222222</v>
   <v>       0.38888889      0.27777778      0.22222222</v>
   <v>       0.41666667      0.27777778      0.22222222</v>
   <v>       0.44444444      0.27777778      0.22222222</v>
   <v>       0.47222222      0.27777778      0.22222222</v>
   <v>       0.50000000      0.27777778      0.22222222</v>
   <v>       0.30555556      0.30555556      0.22222222</v>
   <v>       0.33333333      0.30555556      0.22222222</v>
   <v>       0.36111111      0.30555556      0.22222222</v>
   <v>       0.38888889      0.30555556      0.22222222</v>
   <v>       0.41666667      0.30555556      0.22222222</v>
   <v>       0.44444444      0.30555556      0.22222222</v>
   <v>       0.47222222      0.30555556      0.22222222</v>
   <v>       0.50000000      0.30555556      0.22222222</v>
   <v>       0.33333333      0.33333333      0.22222222</v>
   <v>       0.36111111      0.33333333      0.22222222</v>
   <v>       0.38888889      0.33333333      0.22222222</v>
   <v>       0.41666667      0.33333333      0.22222222</v>
   <v>       0.44444444      0.33333333      0.22222222</v>
   <v>       0.47222222      0.33333333      0.22222222</v>
   <v>       0.50000000      0.33333333      0.22222222</v>
   <v>       0.36111111      0.36111111      0.22222222</v>
   <v>       0.38888889      0.36111111      0.22222222</v>
   <v>       0.41666667      0.36111111      0.22222222</v>
   <v>       0.44444444      0.36111111      0.22222222</v>
   <v>       0.47222222      0.36111111      0.22222222</v>
   <v>       0.50000000      0.36111111      0.22222222</v>
   <v>       0.38888889      0.38888889      0.22222222</v>
   <v>       0.41666667      0.38888889      0.22222222</v>
   <v>       0.44444444      0.38888889      0.22222222</v>
   <v>       0.47222222      0.38888889      0.22222222</v>
   <v>       0.50000000      0.38888889      0.22222222</v>
   <v>       0.41666667      0.41666667      0.22222222</v>
   <v>       0.44444444      0.41666667      0.22222222</v>
   <v>       0.47222222      0.41666667      0.22222222</v>
   <v>       0.50000000      0.41666667      0.22222222</v>
   <v>       0.44444444      0.44444444      0.22222222</v>
   <v>       0.47222222      0.44444444      0.22222222</v>
   <v>       0.50000000      0.44444444      0.22222222</v>
   <v>       0.47222222      0.47222222      0.22222222</v>
   <v>       0.50000000      0.47222222      0.22222222</v>
   <v>       0.50000000      0.50000000      0.22222222</v>
   <v>       0.25000000      0.25000000      0.25000000</v>
   <v>       0.27777778      0.25000000      0.25000000</v>
   <v>       0.30555556      0.25000000      0.25000000</v>
   <v>       0.33333333      0.25000000      0.25000000</v>
   <v>       0.36111111      0.25000000      0.25000000</v>
   <v>       0.38888889      0.25000000      0.25000000</v>
   <v>       0.41666667      0.25000000      0.25000000</v>
   <v>       0.44444444      0.25000000      0.25000000</v>
   <v>       0.47222222      0.25000000      0.25000000</v>
   <v>       0.50000000      0.25000000      0.25000000</v>
   <v>       0.27777778      0.27777778      0.25000000</v>
   <v>       0.30555556      0.27777778      0.25000000</v>
   <v>       0.33333333      0.27777778      0.25000000</v>
   <v>       0.36111111      0.27777778      0.25000000</v>
   <v>       0.38888889      0.27777778      0.25000000</v>
   <v>       0.41666667      0.27777778      0.25000000</v>
   <v>       0.44444444      0.27777778      0.25000000</v>
   <v>       0.47222222      0.27777778      0.25000000</v>
   <v>       0.50000000      0.27777778      0.25000000</v>
   <v>       0.30555556      0.30555556      0.25000000</v>
   <v>       0.33333333      0.30555556      0.25000000</v>
   <v>       0.36111111      0.30555556      0.25000000</v>
   <v>       0.38888889      0.30555556      0.25000000</v>
   <v>       0.41666667      0.30555556      0.25000000</v>
   <v>       0.44444444      0.30555556      0.25000000</v>
   <v>       0.47222222      0.30555556      0.25000000</v>
   <v>       0.50000000      0.30555556      0.25000000</v>
   <v>       0.33333333      0.33333333      0.25000000</v>
   <v>       0.36111111      0.33333333      0.25000000</v>
   <v>       0.38888889      0.33333333      0.25000000</v>
   <v>       0.41666667      0.33333333      0.25000000</v>
   <v>       0.44444444      0.33333333      0.25000000</v>
   <v>       0.47222222      0.33333333      0.25000000</v>
   <v>       0.50000000      0.33333333      0.25000000</v>
   <v>       0.36111111      0.36111111      0.25000000</v>
   <v>       0.38888889      0.36111111      0.25000000</v>
   <v>       0.41666667      0.36111111      0.25000000</v>
   <v>       0.44444444      0.36111111      0.25000000</v>
   <v>       0.47222222      0.36111111      0.25000000</v>
   <v>       0.50000000      0.36111111      0.25000000</v>
   <v>       0.38888889      0.38888889      0.25000000</v>
   <v>       0.41666667      0.38888889      0.25000000</v>
   <v>       0.44444444      0.38888889      0.25000000</v>
   <v>       0.47222222      0.38888889      0.25000000</v>
   <v>       0.50000000      0.38888889      0.25000000</v>
   <v>       0.41666667      0.41666667      0.25000000</v>
   <v>       0.44444444      0.41666667      0.25000000</v>
   <v>       0.47222222      0.41666667      0.25000000</v>
   <v>       0.50000000      0.41666667      0.25000000</v>
   <v>       0.44444444      0.44444444      0.25000000</v>
   <v>       0.47222222      0.44444444      0.25000000</v>
   <v>       0.50000000      0.44444444      0.25000000</v>
   <v>       0.47222222      0.47222222      0.25000000</v>
   <v>       0.50000000      0.47222222      0.25000000</v>
   <v>       0.50000000      0.50000000      0.25000000</v>
   <v>       0.27777778      0.27777778      0.27777778</v>
   <v>       0.30555556      0.27777778      0.27777778</v>
   <v>       0.33333333      0.27777778      0.27777778</v>
   <v>       0.36111111      0.27777778      0.27777778</v>
   <v>       0.38888889      0.27777778      0.27777778</v>
   <v>       0.41666667      0.27777778      0.27777778</v>
   <v>       0.44444444      0.27777778      0.27777778</v>
   <v>       0.47222222      0.27777778      0.27777778</v>
   <v>       0.50000000      0.27777778      0.27777778</v>
   <v>       0.30555556      0.30555556      0.27777778</v>
   <v>       0.33333333      0.30555556      0.27777778</v>
   <v>       0.36111111      0.30555556      0.27777778</v>
   <v>       0.38888889      0.30555556      0.27777778</v>
   <v>       0.41666667      0.30555556      0.27777778</v>
   <v>       0.44444444      0.30555556      0.27777778</v>
   <v>       0.47222222      0.30555556      0.27777778</v>
   <v>       0.50000000      0.30555556      0.27777778</v>
   <v>       0.33333333      0.33333333      0.27777778</v>
   <v>       0.36111111      0.33333333      0.27777778</v>
   <v>       0.38888889      0.33333333      0.27777778</v>
   <v>       0.41666667      0.33333333      0.27777778</v>
   <v>       0.44444444      0.33333333      0.27777778</v>
   <v>       0.47222222      0.33333333      0.27777778</v>
   <v>       0.50000000      0.33333333      0.27777778</v>
   <v>       0.36111111      0.36111111      0.27777778</v>
   <v>       0.38888889      0.36111111      0.27777778</v>
   <v>       0.41666667      0.36111111      0.27777778</v>
   <v>       0.44444444      0.36111111      0.27777778</v>
   <v>       0.47222222      0.36111111      0.27777778</v>
   <v>       0.50000000      0.36111111      0.27777778</v>
   <v>       0.38888889      0.38888889      0.27777778</v>
   <v>       0.41666667      0.38888889      0.27777778</v>
   <v>       0.44444444      0.38888889      0.27777778</v>
   <v>       0.47222222      0.38888889      0.27777778</v>
   <v>       0.50000000      0.38888889      0.27777778</v>
   <v>       0.41666667      0.41666667      0.27777778</v>
   <v>       0.44444444      0.41666667      0.27777778</v>
   <v>       0.47222222      0.41666667      0.27777778</v>
   <v>       0.50000000      0.41666667      0.27777778</v>
   <v>       0.44444444      0.44444444      0.27777778</v>
   <v>       0.47222222      0.44444444      0.27777778</v>
   <v>       0.50000000      0.44444444      0.27777778</v>
   <v>       0.47222222      0.47222222      0.27777778</v>
   <v>       0.50000000      0.47222222      0.27777778</v>
   <v>       0.50000000      0.50000000      0.27777778</v>
   <v>       0.30555556      0.30555556      0.30555556</v>
   <v>       0.33333333      0.30555556      0.30555556</v>
   <v>       0.36111111      0.30555556      0.30555556</v>
   <v>       0.38888889      0.30555556      0.30555556</v>
   <v>       0.41666667      0.30555556      0.30555556</v>
   <v>       0.44444444      0.30555556      0.30555556</v>
   <v>       0.47222222      0.30555556      0.30555556</v>
   <v>       0.50000000      0.30555556      0.30555556</v>
   <v>       0.33333333      0.33333333      0.30555556</v>
   <v>       0.36111111      0.33333333      0.30555556</v>
   <v>       0.38888889      0.33333333      0.30555556</v>
   <v>       0.41666667      0.33333333      0.30555556</v>
   <v>       0.44444444      0.33333333      0.30555556</v>
   <v>       0.47222222      0.33333333      0.30555556</v>
   <v>       0.50000000      0.33333333      0.30555556</v>
   <v>       0.36111111      0.36111111      0.30555556</v>
   <v>       0.38888889      0.36111111      0.30555556</v>
   <v>       0.41666667      0.36111111      0.30555556</v>
   <v>       0.44444444      0.36111111      0.30555556</v>
   <v>       0.47222222      0.36111111      0.30555556</v>
   <v>       0.50000000      0.36111111      0.30555556</v>
   <v>       0.38888889      0.38888889      0.30555556</v>
   <v>       0.41666667      0.38888889      0.30555556</v>
   <v>       0.44444444      0.38888889      0.30555556</v>
   <v>       0.47222222      0.38888889      0.30555556</v>
   <v>       0.50000000      0.38888889      0.30555556</v>
   <v>       0.41666667      0.41666667      0.30555556</v>
   <v>       0.44444444      0.41666667      0.30555556</v>
   <v>       0.47222222      0.41666667      0.30555556</v>
   <v>       0.50000000      0.41666667      0.30555556</v>
   <v>       0.44444444      0.44444444      0.30555556</v>
   <v>       0.47222222      0.44444444      0.30555556</v>
   <v>       0.50000000      0.44444444      0.30555556</v>
   <v>       0.47222222      0.47222222      0.30555556</v>
   <v>       0.50000000      0.47222222      0.30555556</v>
   <v>       0.50000000      0.50000000      0.30555556</v>
   <v>       0.33333333      0.33333333      0.33333333</v>
   <v>       0.36111111      0.33333333      0.33333333</v>
   <v>       0.38888889      0.33333333      0.33333333</v>
   <v>       0.41666667      0.33333333      0.33333333</v>
   <v>       0.44444444      0.33333333      0.33333333</v>
   <v>       0.47222222      0.33333333      0.33333333</v>
   <v>       0.50000000      0.33333333      0.33333333</v>
   <v>       0.36111111      0.36111111      0.33333333</v>
   <v>       0.38888889      0.36111111      0.33333333</v>
   <v>       0.41666667      0.36111111      0.33333333</v>
   <v>       0.44444444      0.36111111      0.33333333</v>
   <v>       0.47222222      0.36111111      0.33333333</v>
   <v>       0.50000000      0.36111111      0.33333333</v>
   <v>       0.38888889      0.38888889      0.33333333</v>
   <v>       0.41666667      0.38888889      0.33333333</v>
   <v>       0.44444444      0.38888889      0.33333333</v>
   <v>       0.47222222      0.38888889      0.33333333</v>
   <v>       0.50000000      0.38888889      0.33333333</v>
   <v>       0.41666667      0.41666667      0.33333333</v>
   <v>       0.44444444      0.41666667      0.33333333</v>
   <v>       0.47222222      0.41666667      0.33333333</v>
   <v>       0.50000000      0.41666667      0.33333333</v>
   <v>       0.44444444      0.44444444      0.33333333</v>
   <v>       0.47222222      0.44444444      0.33333333</v>
   <v>       0.50000000      0.44444444      0.33333333</v>
   <v>       0.47222222      0.47222222      0.33333333</v>
   <v>       0.50000000      0.47222222      0.33333333</v>
   <v>       0.50000000      0.50000000      0.33333333</v>
   <v>       0.36111111      0.36111111      0.36111111</v>
   <v>       0.38888889      0.36111111      0.36111111</v>
   <v>       0.41666667      0.36111111      0.36111111</v>
   <v>       0.44444444      0.36111111      0.36111111</v>
   <v>       0.47222222      0.36111111      0.36111111</v>
   <v>       0.50000000      0.36111111      0.36111111</v>
   <v>       0.38888889      0.38888889      0.36111111</v>
   <v>       0.41666667      0.38888889      0.36111111</v>
   <v>       0.44444444      0.38888889      0.36111111</v>
   <v>       0.47222222      0.38888889      0.36111111</v>
   <v>       0.50000000      0.38888889      0.36111111</v>
   <v>       0.41666667      0.41666667      0.36111111</v>
   <v>       0.44444444      0.41666667      0.36111111</v>
   <v>       0.47222222      0.41666667      0.36111111</v>
   <v>       0.50000000      0.41666667      0.36111111</v>
   <v>       0.44444444      0.44444444      0.36111111</v>
   <v>       0.47222222      0.44444444      0.36111111</v>
   <v>       0.50000000      0.44444444      0.36111111</v>
   <v>       0.47222222      0.47222222      0.36111111</v>
   <v>       0.50000000      0.47222222      0.36111111</v>
   <v>       0.50000000      0.50000000      0.36111111</v>
   <v>       0.38888889      0.38888889      0.38888889</v>
   <v>       0.41666667      0.38888889      0.38888889</v>
   <v>       0.44444444      0.38888889      0.38888889</v>
   <v>       0.47222222      0.38888889      0.38888889</v>
   <v>       0.50000000      0.38888889      0.38888889</v>
   <v>       0.41666667      0.41666667      0.38888889</v>
   <v>       0.44444444      0.41666667      0.38888889</v>
   <v>       0.47222222      0.41666667      0.38888889</v>
   <v>       0.50000000      0.41666667      0.38888889</v>
   <v>       0.44444444      0.44444444      0.38888889</v>
   <v>       0.47222222      0.44444444      0.38888889</v>
   <v>       0.50000000      0.44444444      0.38888889</v>
   <v>       0.47222222      0.47222222      0.38888889</v>
   <v>       0.50000000      0.47222222      0.38888889</v>
   <v>       0.50000000      0.50000000      0.38888889</v>
[...]
       <r>  -0.2640  1.0000</r>
       <r>  -0.2369  1.0000</r>
       <r>  -0.2208  1.0000</r>
       <r>  -0.2075  1.0000</r>
       <r>  -0.1973  1.0000</r>
       <r>  -0.1973  1.0000</r>
       <r>   0.4819  1.0000</r>
       <r>   0.4819  1.0000</r>
       <r>   0.5244  1.0000</r>
       <r>   0.6500  1.0000</r>
       <r>   0.7856  1.0000</r>
       <r>   0.8020  1.0000</r>
       <r>   0.8020  1.0000</r>
       <r>   0.8054  1.0000</r>
       <r>   1.2434  1.0000</r>
       <r>   1.7308  1.0000</r>
       <r>   2.2869  0.9928</r>
       <r>   2.2869  0.9928</r>
       <r>   5.2549  0.0000</r>
       <r>   5.2549  0.0000</r>
       <r>   5.8126  0.0000</r>
       <r>   6.2511  0.0000</r>
       <r>  19.8583  0.0000</r>
       <r>  19.8583  0.0000</r>
       <r>  20.2345  0.0000</r>
       <r>  20.2345  0.0000</r>
      </set>
      <set comment="kpoint 1314">
       <r>  -1.8566  1.0000</r>
       <r>  -1.8566  1.0000</r>
       <r>  -1.7390  1.0000</r>
       <r>  -1.7390  1.0000</r>
       <r>  -0.2879  1.0000</r>
       <r>  -0.2879  1.0000</r>
       <r>  -0.2492  1.0000</r>
       <r>  -0.2492  1.0000</r>
       <r>  -0.2159  1.0000</r>
       <r>  -0.2159  1.0000</r>
       <r>  -0.1995  1.0000</r>
       <r>  -0.1995  1.0000</r>
       <r>   0.4949  1.0000</r>
       <r>   0.4949  1.0000</r>
       <r>   0.5887  1.0000</r>
       <r>   0.5887  1.0000</r>
       <r>   0.7974  1.0000</r>
       <r>   0.7974  1.0000</r>
       <r>   0.7999  1.0000</r>
       <r>   0.7999  1.0000</r>
       <r>   1.4823  1.0000</r>
       <r>   1.4823  1.0000</r>
       <r>   2.2934  0.9360</r>
       <r>   2.2934  0.9360</r>
       <r>   5.2245  0.0000</r>
       <r>   5.2245  0.0000</r>
       <r>   6.0192  0.0000</r>
       <r>   6.0192  0.0000</r>
       <r>  20.0539  0.0000</r>
       <r>  20.0539  0.0000</r>
       <r>  20.0546  0.0000</r>
       <r>  20.0546  0.0000</r>
      </set>
      <set comment="kpoint 1315">
       <r>  -1.9084  1.0000</r>
       <r>  -1.7715  1.0000</r>
       <r>  -1.7715  1.0000</r>
       <r>  -1.7466  1.0000</r>
       <r>  -0.2847  1.0000</r>
       <r>  -0.2764  1.0000</r>
       <r>  -0.2764  1.0000</r>
       <r>  -0.2298  1.0000</r>
       <r>  -0.2282  1.0000</r>
       <r>  -0.2051  1.0000</r>
       <r>  -0.2051  1.0000</r>
       <r>  -0.2020  1.0000</r>
       <r>   0.5056  1.0000</r>
       <r>   0.5176  1.0000</r>
       <r>   0.5176  1.0000</r>
       <r>   0.7447  1.0000</r>
       <r>   0.7649  1.0000</r>
       <r>   0.8048  1.0000</r>
       <r>   0.8070  1.0000</r>
       <r>   0.8070  1.0000</r>
       <r>   1.1587  1.0000</r>
       <r>   2.0405  1.0000</r>
       <r>   2.0405  1.0000</r>
       <r>   2.2441  1.0000</r>
       <r>   5.2491  0.0000</r>
       <r>   5.4535  0.0000</r>
       <r>   5.4535  0.0000</r>
       <r>   6.2410  0.0000</r>
       <r>  19.8520  0.0000</r>
       <r>  20.3237  0.0000</r>
       <r>  20.3237  0.0000</r>
       <r>  20.5603  0.0000</r>
      </set>
      <set comment="kpoint 1316">
       <r>  -1.8764  1.0000</r>
       <r>  -1.8081  1.0000</r>
       <r>  -1.7697  1.0000</r>
       <r>  -1.7573  1.0000</r>
       <r>  -0.2779  1.0000</r>
       <r>  -0.2738  1.0000</r>
       <r>  -0.2611  1.0000</r>
       <r>  -0.2377  1.0000</r>
       <r>  -0.2277  1.0000</r>
       <r>  -0.2161  1.0000</r>
       <r>  -0.2109  1.0000</r>
       <r>  -0.2094  1.0000</r>
       <r>   0.5481  1.0000</r>
       <r>   0.5555  1.0000</r>
       <r>   0.5866  1.0000</r>
       <r>   0.7068  1.0000</r>
       <r>   0.7818  1.0000</r>
       <r>   0.8013  1.0000</r>
       <r>   0.8022  1.0000</r>
       <r>   0.8033  1.0000</r>
       <r>   1.3566  1.0000</r>
       <r>   1.8075  1.0000</r>
       <r>   2.0991  1.0000</r>
       <r>   2.2060  1.0000</r>
       <r>   5.2135  0.0000</r>
       <r>   5.3195  0.0000</r>
       <r>   5.6029  0.0000</r>
       <r>   6.0004  0.0000</r>
       <r>  20.0483  0.0000</r>
       <r>  20.4291  0.0000</r>
       <r>  20.4997  0.0000</r>
       <r>  20.7737  0.0000</r>
      </set>
      <set comment="kpoint 1317">
       <r>  -1.8430  1.0000</r>
       <r>  -1.8430  1.0000</r>
       <r>  -1.7650  1.0000</r>
       <r>  -1.7650  1.0000</r>
       <r>  -0.2742  1.0000</r>
       <r>  -0.2742  1.0000</r>
       <r>  -0.2482  1.0000</r>
       <r>  -0.2482  1.0000</r>
       <r>  -0.2237  1.0000</r>
       <r>  -0.2237  1.0000</r>
       <r>  -0.2124  1.0000</r>
       <r>  -0.2124  1.0000</r>
       <r>   0.5661  1.0000</r>
       <r>   0.5661  1.0000</r>
       <r>   0.6505  1.0000</r>
       <r>   0.6505  1.0000</r>
       <r>   0.7952  1.0000</r>
       <r>   0.7952  1.0000</r>
       <r>   0.7996  1.0000</r>
       <r>   0.7996  1.0000</r>
       <r>   1.5769  1.0000</r>
       <r>   1.5769  1.0000</r>
       <r>   2.1561  1.0000</r>
       <r>   2.1561  1.0000</r>
       <r>   5.2379  0.0000</r>
       <r>   5.2379  0.0000</r>
       <r>   5.7867  0.0000</r>
       <r>   5.7867  0.0000</r>
       <r>  20.2454  0.0000</r>
       <r>  20.2454  0.0000</r>
       <r>  20.6627  0.0000</r>
       <r>  20.6627  0.0000</r>
      </set>
      <set comment="kpoint 1318">
       <r>  -1.8527  1.0000</r>
       <r>  -1.7996  1.0000</r>
       <r>  -1.7996  1.0000</r>
       <r>  -1.7742  1.0000</r>
       <r>  -0.2689  1.0000</r>
       <r>  -0.2604  1.0000</r>
       <r>  -0.2604  1.0000</r>
       <r>  -0.2412  1.0000</r>
       <r>  -0.2307  1.0000</r>
       <r>  -0.2212  1.0000</r>
       <r>  -0.2212  1.0000</r>
       <r>  -0.2177  1.0000</r>
       <r>   0.5987  1.0000</r>
       <r>   0.6223  1.0000</r>
       <r>   0.6223  1.0000</r>
       <r>   0.7162  1.0000</r>
       <r>   0.7775  1.0000</r>
       <r>   0.7976  1.0000</r>
       <r>   0.7976  1.0000</r>
       <r>   0.7976  1.0000</r>
       <r>   1.5162  1.0000</r>
       <r>   1.9009  1.0000</r>
       <r>   1.9009  1.0000</r>
       <r>   2.1093  1.0000</r>
       <r>   5.2323  0.0000</r>
       <r>   5.4327  0.0000</r>
       <r>   5.4327  0.0000</r>
       <r>   5.7781  0.0000</r>
       <r>  20.2447  0.0000</r>
       <r>  20.6308  0.0000</r>
       <r>  20.6308  0.0000</r>
       <r>  21.0338  0.0000</r>
      </set>
      <set comment="kpoint 1319">
       <r>  -1.8272  1.0000</r>
       <r>  -1.8272  1.0000</r>
       <r>  -1.7883  1.0000</r>
       <r>  -1.7883  1.0000</r>
       <r>  -0.2629  1.0000</r>
       <r>  -0.2629  1.0000</r>
       <r>  -0.2494  1.0000</r>
       <r>  -0.2494  1.0000</r>
       <r>  -0.2279  1.0000</r>
       <r>  -0.2279  1.0000</r>
       <r>  -0.2218  1.0000</r>
       <r>  -0.2218  1.0000</r>
       <r>   0.6261  1.0000</r>
       <r>   0.6261  1.0000</r>
       <r>   0.6791  1.0000</r>
       <r>   0.6791  1.0000</r>
       <r>   0.7881  1.0000</r>
       <r>   0.7881  1.0000</r>
       <r>   0.7949  1.0000</r>
       <r>   0.7949  1.0000</r>
       <r>   1.7027  1.0000</r>
       <r>   1.7027  1.0000</r>
       <r>   2.0045  1.0000</r>
       <r>   2.0045  1.0000</r>
       <r>   5.3072  0.0000</r>
       <r>   5.3072  0.0000</r>
       <r>   5.5875  0.0000</r>
       <r>   5.5875  0.0000</r>
       <r>  20.4428  0.0000</r>
       <r>  20.4428  0.0000</r>
       <r>  20.8342  0.0000</r>
       <r>  20.8343  0.0000</r>
      </set>
      <set comment="kpoint 1320">
       <r>  -1.8090  1.0000</r>
       <r>  -1.8090  1.0000</r>
       <r>  -1.8090  1.0000</r>
       <r>  -1.8090  1.0000</r>
       <r>  -0.2543  1.0000</r>
       <r>  -0.2543  1.0000</r>
       <r>  -0.2543  1.0000</r>
       <r>  -0.2543  1.0000</r>
       <r>  -0.2273  1.0000</r>
       <r>  -0.2273  1.0000</r>
       <r>  -0.2273  1.0000</r>
       <r>  -0.2273  1.0000</r>
       <r>   0.6683  1.0000</r>
       <r>   0.6683  1.0000</r>
       <r>   0.6683  1.0000</r>
       <r>   0.6683  1.0000</r>
       <r>   0.7884  1.0000</r>
       <r>   0.7884  1.0000</r>
       <r>   0.7884  1.0000</r>
       <r>   0.7884  1.0000</r>
       <r>   1.8494  1.0000</r>
       <r>   1.8494  1.0000</r>
       <r>   1.8494  1.0000</r>
       <r>   1.8494  1.0000</r>
       <r>   5.4259  0.0000</r>
       <r>   5.4259  0.0000</r>
       <r>   5.4259  0.0000</r>
       <r>   5.4259  0.0000</r>
       <r>  20.6423  0.0000</r>
       <r>  20.6423  0.0000</r>
       <r>  20.6423  0.0000</r>
       <r>  20.6423  0.0000</r>
      </set>
      <set comment="kpoint 1321">
       <r>  -1.8864  1.0000</r>
       <r>  -1.7790  1.0000</r>
       <r>  -1.7790  1.0000</r>
       <r>  -1.7790  1.0000</r>
       <r>  -0.2695  1.0000</r>
       <r>  -0.2695  1.0000</r>
       <r>  -0.2695  1.0000</r>
       <r>  -0.2328  1.0000</r>
       <r>  -0.2328  1.0000</r>
       <r>  -0.2152  1.0000</r>
       <r>  -0.2152  1.0000</r>
       <r>  -0.2152  1.0000</r>
       <r>   0.5819  1.0000</r>
       <r>   0.5819  1.0000</r>
       <r>   0.5819  1.0000</r>
       <r>   0.7811  1.0000</r>
       <r>   0.7811  1.0000</r>
       <r>   0.8079  1.0000</r>
       <r>   0.8079  1.0000</r>
       <r>   0.8079  1.0000</r>
       <r>   1.2714  1.0000</r>
       <r>   2.0516  1.0000</r>
       <r>   2.0516  1.0000</r>
       <r>   2.0516  1.0000</r>
       <r>   5.3131  0.0000</r>
       <r>   5.3131  0.0000</r>
       <r>   5.3131  0.0000</r>
       <r>   5.9910  0.0000</r>
       <r>  20.4950  0.0000</r>
       <r>  20.4950  0.0000</r>
       <r>  20.4951  0.0000</r>
       <r>  20.9096  0.0000</r>
      </set>
      <set comment="kpoint 1322">
       <r>  -1.8626  1.0000</r>
       <r>  -1.8091  1.0000</r>
       <r>  -1.7836  1.0000</r>
       <r>  -1.7836  1.0000</r>
       <r>  -0.2649  1.0000</r>
       <r>  -0.2649  1.0000</r>
       <r>  -0.2566  1.0000</r>
       <r>  -0.2383  1.0000</r>
       <r>  -0.2338  1.0000</r>
       <r>  -0.2250  1.0000</r>
       <r>  -0.2217  1.0000</r>
       <r>  -0.2217  1.0000</r>
       <r>   0.6252  1.0000</r>
       <r>   0.6252  1.0000</r>
       <r>   0.6521  1.0000</r>
       <r>   0.7610  1.0000</r>
       <r>   0.7936  1.0000</r>
       <r>   0.8053  1.0000</r>
       <r>   0.8053  1.0000</r>
       <r>   0.8070  1.0000</r>
       <r>   1.4428  1.0000</r>
       <r>   1.8472  1.0000</r>
       <r>   2.0591  1.0000</r>
       <r>   2.0591  1.0000</r>
       <r>   5.2265  0.0000</r>
       <r>   5.2265  0.0000</r>
       <r>   5.4256  0.0000</r>
       <r>   5.7694  0.0000</r>
       <r>  20.6671  0.0000</r>
       <r>  20.6671  0.0000</r>
       <r>  20.9536  0.0000</r>
       <r>  20.9605  0.0000</r>
      </set>
      <set comment="kpoint 1323">
       <r>  -1.8369  1.0000</r>
       <r>  -1.8369  1.0000</r>
       <r>  -1.7851  1.0000</r>
       <r>  -1.7851  1.0000</r>
       <r>  -0.2633  1.0000</r>
       <r>  -0.2633  1.0000</r>
       <r>  -0.2462  1.0000</r>
       <r>  -0.2462  1.0000</r>
       <r>  -0.2312  1.0000</r>
       <r>  -0.2312  1.0000</r>
       <r>  -0.2239  1.0000</r>
       <r>  -0.2239  1.0000</r>
       <r>   0.6409  1.0000</r>
       <r>   0.6409  1.0000</r>
       <r>   0.7136  1.0000</r>
       <r>   0.7136  1.0000</r>
       <r>   0.8023  1.0000</r>
       <r>   0.8023  1.0000</r>
       <r>   0.8034  1.0000</r>
       <r>   0.8034  1.0000</r>
       <r>   1.6406  1.0000</r>
       <r>   1.6406  1.0000</r>
       <r>   2.0618  1.0000</r>
       <r>   2.0618  1.0000</r>
       <r>   5.1972  0.0000</r>
       <r>   5.1972  0.0000</r>
       <r>   5.5796  0.0000</r>
       <r>   5.5796  0.0000</r>
       <r>  20.8098  0.0000</r>
       <r>  20.8098  0.0000</r>
       <r>  20.8542  0.0000</r>
       <r>  20.8542  0.0000</r>
      </set>
      <set comment="kpoint 1324">
       <r>  -1.8466  1.0000</r>
       <r>  -1.8072  1.0000</r>
       <r>  -1.8072  1.0000</r>
       <r>  -1.7945  1.0000</r>
       <r>  -0.2583  1.0000</r>
       <r>  -0.2542  1.0000</r>
       <r>  -0.2542  1.0000</r>
       <r>  -0.2399  1.0000</r>
       <r>  -0.2376  1.0000</r>
       <r>  -0.2305  1.0000</r>
       <r>  -0.2305  1.0000</r>
       <r>  -0.2289  1.0000</r>
       <r>   0.6765  1.0000</r>
       <r>   0.6927  1.0000</r>
       <r>   0.6927  1.0000</r>
       <r>   0.7789  1.0000</r>
       <r>   0.7906  1.0000</r>
       <r>   0.8041  1.0000</r>
       <r>   0.8049  1.0000</r>
       <r>   0.8049  1.0000</r>
       <r>   1.5734  1.0000</r>
       <r>   1.8971  1.0000</r>
       <r>   1.8971  1.0000</r>
       <r>   2.0091  1.0000</r>
       <r>   5.1919  0.0000</r>
       <r>   5.2948  0.0000</r>
       <r>   5.2948  0.0000</r>
       <r>   5.5719  0.0000</r>
       <r>  20.8369  0.0000</r>
       <r>  21.1188  0.0000</r>
       <r>  21.1320  0.0000</r>
       <r>  21.2210  0.0000</r>
      </set>
      <set comment="kpoint 1325">
       <r>  -1.8282  1.0000</r>
       <r>  -1.8282  1.0000</r>
       <r>  -1.8024  1.0000</r>
       <r>  -1.8024  1.0000</r>
       <r>  -0.2546  1.0000</r>
       <r>  -0.2546  1.0000</r>
       <r>  -0.2458  1.0000</r>
       <r>  -0.2458  1.0000</r>
       <r>  -0.2359  1.0000</r>
       <r>  -0.2359  1.0000</r>
       <r>  -0.2320  1.0000</r>
       <r>  -0.2320  1.0000</r>
       <r>   0.7017  1.0000</r>
       <r>   0.7017  1.0000</r>
       <r>   0.7467  1.0000</r>
       <r>   0.7467  1.0000</r>
       <r>   0.7997  1.0000</r>
       <r>   0.7997  1.0000</r>
       <r>   0.8024  1.0000</r>
       <r>   0.8024  1.0000</r>
       <r>   1.7307  1.0000</r>
       <r>   1.7307  1.0000</r>
       <r>   1.9531  1.0000</r>
       <r>   1.9531  1.0000</r>
       <r>   5.2155  0.0000</r>
       <r>   5.2155  0.0000</r>
       <r>   5.4119  0.0000</r>
       <r>   5.4119  0.0000</r>
       <r>  20.9976  0.0000</r>
       <r>  20.9977  0.0000</r>
       <r>  21.2912  0.0000</r>
       <r>  21.3011  0.0000</r>
      </set>
      <set comment="kpoint 1326">
       <r>  -1.8167  1.0000</r>
       <r>  -1.8167  1.0000</r>
       <r>  -1.8167  1.0000</r>
       <r>  -1.8167  1.0000</r>
       <r>  -0.2484  1.0000</r>
       <r>  -0.2484  1.0000</r>
       <r>  -0.2484  1.0000</r>
       <r>  -0.2484  1.0000</r>
       <r>  -0.2363  1.0000</r>
       <r>  -0.2363  1.0000</r>
       <r>  -0.2363  1.0000</r>
       <r>  -0.2363  1.0000</r>
       <r>   0.7420  1.0000</r>
       <r>   0.7420  1.0000</r>
       <r>   0.7420  1.0000</r>
       <r>   0.7420  1.0000</r>
       <r>   0.7983  1.0000</r>
       <r>   0.7983  1.0000</r>
       <r>   0.7983  1.0000</r>
       <r>   0.7983  1.0000</r>
       <r>   1.8388  1.0000</r>
       <r>   1.8388  1.0000</r>
       <r>   1.8388  1.0000</r>
       <r>   1.8388  1.0000</r>
       <r>   5.2888  0.0000</r>
       <r>   5.2888  0.0000</r>
       <r>   5.2888  0.0000</r>
       <r>   5.2888  0.0000</r>
       <r>  21.1591  0.0000</r>
       <r>  21.1591  0.0000</r>
       <r>  21.1591  0.0000</r>
       <r>  21.1591  0.0000</r>
      </set>
      <set comment="kpoint 1327">
       <r>  -1.8378  1.0000</r>
       <r>  -1.8119  1.0000</r>
       <r>  -1.8119  1.0000</r>
       <r>  -1.8119  1.0000</r>
       <r>  -0.2501  1.0000</r>
       <r>  -0.2501  1.0000</r>
       <r>  -0.2501  1.0000</r>
       <r>  -0.2409  1.0000</r>
       <r>  -0.2409  1.0000</r>
       <r>  -0.2365  1.0000</r>
       <r>  -0.2365  1.0000</r>
       <r>  -0.2365  1.0000</r>
       <r>   0.7402  1.0000</r>
       <r>   0.7402  1.0000</r>
       <r>   0.7402  1.0000</r>
       <r>   0.7999  1.0000</r>
       <r>   0.7999  1.0000</r>
       <r>   0.8066  1.0000</r>
       <r>   0.8066  1.0000</r>
       <r>   0.8066  1.0000</r>
       <r>   1.6627  1.0000</r>
       <r>   1.8943  1.0000</r>
       <r>   1.8943  1.0000</r>
       <r>   1.8943  1.0000</r>
       <r>   5.2099  0.0000</r>
       <r>   5.2099  0.0000</r>
       <r>   5.2099  0.0000</r>
       <r>   5.4051  0.0000</r>
       <r>  21.3199  0.0000</r>
       <r>  21.3334  0.0000</r>
       <r>  21.3483  0.0000</r>
       <r>  21.4105  0.0000</r>
      </set>
      <set comment="kpoint 1328">
       <r>  -1.8263  1.0000</r>
       <r>  -1.8263  1.0000</r>
       <r>  -1.8134  1.0000</r>
       <r>  -1.8134  1.0000</r>
       <r>  -0.2485  1.0000</r>
       <r>  -0.2485  1.0000</r>
       <r>  -0.2443  1.0000</r>
       <r>  -0.2443  1.0000</r>
       <r>  -0.2405  1.0000</r>
       <r>  -0.2405  1.0000</r>
       <r>  -0.2387  1.0000</r>
       <r>  -0.2387  1.0000</r>
       <r>   0.7582  1.0000</r>
       <r>   0.7582  1.0000</r>
       <r>   0.7839  1.0000</r>
       <r>   0.7839  1.0000</r>
       <r>   0.8052  1.0000</r>
       <r>   0.8052  1.0000</r>
       <r>   0.8055  1.0000</r>
       <r>   0.8055  1.0000</r>
       <r>   1.7745  1.0000</r>
       <r>   1.7745  1.0000</r>
       <r>   1.8933  1.0000</r>
       <r>   1.8933  1.0000</r>
       <r>   5.1812  0.0000</r>
       <r>   5.1812  0.0000</r>
       <r>   5.2827  0.0000</r>
       <r>   5.2827  0.0000</r>
       <r>  21.3881  0.0000</r>
       <r>  21.4224  0.0000</r>
       <r>  21.4519  0.0000</r>
       <r>  21.4962  0.0000</r>
      </set>
      <set comment="kpoint 1329">
       <r>  -1.8214  1.0000</r>
       <r>  -1.8214  1.0000</r>
       <r>  -1.8214  1.0000</r>
       <r>  -1.8214  1.0000</r>
       <r>  -0.2448  1.0000</r>
       <r>  -0.2448  1.0000</r>
       <r>  -0.2448  1.0000</r>
       <r>  -0.2448  1.0000</r>
       <r>  -0.2418  1.0000</r>
       <r>  -0.2418  1.0000</r>
       <r>  -0.2418  1.0000</r>
       <r>  -0.2418  1.0000</r>
       <r>   0.7897  1.0000</r>
       <r>   0.7897  1.0000</r>
       <r>   0.7897  1.0000</r>
       <r>   0.7897  1.0000</r>
       <r>   0.8042  1.0000</r>
       <r>   0.8042  1.0000</r>
       <r>   0.8042  1.0000</r>
       <r>   0.8042  1.0000</r>
       <r>   1.8311  1.0000</r>
       <r>   1.8311  1.0000</r>
       <r>   1.8311  1.0000</r>
       <r>   1.8311  1.0000</r>
       <r>   5.2044  0.0000</r>
       <r>   5.2044  0.0000</r>
       <r>   5.2044  0.0000</r>
       <r>   5.2044  0.0000</r>
       <r>  21.5073  0.0000</r>
       <r>  21.5090  0.0000</r>
       <r>  21.5187  0.0000</r>
       <r>  21.5536  0.0000</r>
      </set>
      <set comment="kpoint 1330">
       <r>  -1.8229  1.0000</r>
       <r>  -1.8229  1.0000</r>
       <r>  -1.8229  1.0000</r>
       <r>  -1.8229  1.0000</r>
       <r>  -0.2436  1.0000</r>
       <r>  -0.2436  1.0000</r>
       <r>  -0.2436  1.0000</r>
       <r>  -0.2436  1.0000</r>
       <r>  -0.2436  1.0000</r>
       <r>  -0.2436  1.0000</r>
       <r>  -0.2436  1.0000</r>
       <r>  -0.2436  1.0000</r>
       <r>   0.8062  1.0000</r>
       <r>   0.8062  1.0000</r>
       <r>   0.8062  1.0000</r>
       <r>   0.8062  1.0000</r>
       <r>   0.8062  1.0000</r>
       <r>   0.8062  1.0000</r>
       <r>   0.8062  1.0000</r>
       <r>   0.8062  1.0000</r>
       <r>   1.8282  1.0000</r>
       <r>   1.8282  1.0000</r>
       <r>   1.8282  1.0000</r>
       <r>   1.8282  1.0000</r>
       <r>   5.1760  0.0000</r>
       <r>   5.1760  0.0000</r>
       <r>   5.1760  0.0000</r>
       <r>   5.1760  0.0000</r>
       <r>  21.6182  0.0000</r>
       <r>  21.6182  0.0000</r>
       <r>  21.6182  0.0000</r>
       <r>  21.6182  0.0000</r>
      </set>
     </set>
    </set>
   </array>
  </eigenvalues>
 </calculation>
 <structure name="finalpos" >
  <crystal>
   <varray name="basis" >
    <v>       3.85503368      0.00000000      0.00000000</v>
    <v>       0.00000000      3.85503368      0.00000000</v>
    <v>       0.00000000      0.00000000      3.85503368</v>
   </varray>
   <i name="volume">     57.29075289</i>
   <varray name="rec_basis" >
    <v>       0.25940111      0.00000000      0.00000000</v>
    <v>       0.00000000      0.25940111      0.00000000</v>
    <v>       0.00000000      0.00000000      0.25940111</v>
   </varray>
  </crystal>
  <varray name="positions" >
   <v>       0.00000000      0.00000000      0.00000000</v>
   <v>       0.50000000      0.50000000      0.00000000</v>
   <v>       0.50000000      0.00000000      0.50000000</v>
   <v>       0.00000000      0.50000000      0.50000000</v>
  </varray>
 </structure>
</modeling>
