 running on    4 nodes
 distr:  one band on    1 nodes,    4 groups
 vasp.4.6.28 25Jul05 complex 
 POSCAR found :  1 types and   32 ions

 ----------------------------------------------------------------------------- 
|                                                                             |
|  ADVICE TO THIS USER RUNNING 'VASP/VAMP'   (HEAR YOUR MASTER'S VOICE ...):  |
|                                                                             |
|      You have a (more or less) 'large supercell' and for larger cells       |
|      it might be more efficient to use real space projection operators      |
|      So try LREAL= Auto  in the INCAR   file.                               |
|      Mind: If you want to do an extremely accurate calculations keep the    |
|      reciprocal projection scheme          (i.e. LREAL=.FALSE.)             |
|                                                                             |
 ----------------------------------------------------------------------------- 

 LDA part: xc-table for Pade appr. of Perdew
 POSCAR, INCAR and KPOINTS ok, starting setup
 WARNING: wrap around errors must be expected
 FFT: planning ...           4
 reading WAVECAR
 entering main loop
       N       E                     dE             d eps       ncg     rms          rms(c)
DAV:   1     0.202355665364E+04    0.20236E+04   -0.11463E+05   424   0.955E+02
DAV:   2    -0.357676654600E+01   -0.20271E+04   -0.19246E+04   436   0.330E+02
DAV:   3    -0.939641144173E+02   -0.90387E+02   -0.88183E+02   464   0.753E+01
DAV:   4    -0.948782913275E+02   -0.91418E+00   -0.91181E+00   448   0.765E+00
DAV:   5    -0.948841445795E+02   -0.58533E-02   -0.58490E-02   448   0.534E-01    0.142E+01
DAV:   6    -0.890779165291E+02    0.58062E+01   -0.22374E+01   436   0.164E+01    0.269E+00
DAV:   7    -0.889323017478E+02    0.14561E+00   -0.32596E-01   440   0.122E+00    0.149E+00
DAV:   8    -0.888598559069E+02    0.72446E-01   -0.20492E-02   432   0.449E-01    0.870E-02
DAV:   9    -0.888603930143E+02   -0.53711E-03   -0.13454E-03   440   0.105E-01    0.607E-02
DAV:  10    -0.888602883498E+02    0.10466E-03   -0.12823E-04   416   0.318E-02    0.716E-03
DAV:  11    -0.888602822539E+02    0.60959E-05   -0.42124E-06   224   0.510E-03
   1 F= -.88860282E+02 E0= -.88802688E+02  d E =-.888603E+02
 curvature:   0.00 expect dE= 0.000E+00 dE for cont linesearch  0.000E+00
 trial: gam= 0.00000 g(F)=  0.240E-57 g(S)=  0.000E+00 ort = 0.000E+00 (trialstep = 0.100E+01)
 search vector abs. value=  0.100E-09
 reached required accuracy - stopping structural energy minimisation
 writing wavefunctions

 ----------------------------------------------------------------------------- 
|                                                                             |
|           W    W    AA    RRRRR   N    N  II  N    N   GGGG   !!!           |
|           W    W   A  A   R    R  NN   N  II  NN   N  G    G  !!!           |
|           W    W  A    A  R    R  N N  N  II  N N  N  G       !!!           |
|           W WW W  AAAAAA  RRRRR   N  N N  II  N  N N  G  GGG   !            |
|           WW  WW  A    A  R   R   N   NN  II  N   NN  G    G                |
|           W    W  A    A  R    R  N    N  II  N    N   GGGG   !!!           |
|                                                                             |
|      The partial DOS and the PROCAR file are not evaluated for NPAR/=1      |
|      please rerun with NPAR=1                                               |
|                                                                             |
 ----------------------------------------------------------------------------- 

