   4   4   0   0
  0.1801146E+02  0.4161051E-09  0.4161051E-09  0.4161051E-09  0.5000000E-15
  1.000000000000000E-004
  CAR 
 unknown system                          
     18.81701246     -4.48666083  301      7.11488723      1.00000000
     -4.487  0.0000E+00  0.0000E+00
     -4.409  0.0000E+00  0.0000E+00
     -4.331  0.0000E+00  0.0000E+00
     -4.254  0.0000E+00  0.0000E+00
     -4.176  0.0000E+00  0.0000E+00
     -4.098  0.0000E+00  0.0000E+00
     -4.021  0.0000E+00  0.0000E+00
     -3.943  0.0000E+00  0.0000E+00
     -3.865  0.0000E+00  0.0000E+00
     -3.788  0.0000E+00  0.0000E+00
     -3.710  0.0000E+00  0.0000E+00
     -3.632  0.0000E+00  0.0000E+00
     -3.555  0.0000E+00  0.0000E+00
     -3.477  0.7583E-15  0.5890E-16
     -3.399  0.2034E-01  0.1580E-02
     -3.321  0.1243E+00  0.1129E-01
     -3.244  0.1962E+00  0.2658E-01
     -3.166  0.2237E+00  0.4439E-01
     -3.088  0.2754E+00  0.6599E-01
     -3.011  0.2937E+00  0.8986E-01
     -2.933  0.3458E+00  0.1173E+00
     -2.855  0.3467E+00  0.1452E+00
     -2.778  0.3613E+00  0.1744E+00
     -2.700  0.4377E+00  0.2098E+00
     -2.622  0.3909E+00  0.2424E+00
     -2.545  0.4839E+00  0.2804E+00
     -2.467  0.4369E+00  0.3146E+00
     -2.389  0.5298E+00  0.3565E+00
     -2.312  0.4898E+00  0.3953E+00
     -2.234  0.5615E+00  0.4398E+00
     -2.156  0.4885E+00  0.4796E+00
     -2.079  0.6121E+00  0.5278E+00
     -2.001  0.5826E+00  0.5734E+00
     -1.923  0.6200E+00  0.6221E+00
     -1.846  0.6009E+00  0.6692E+00
     -1.768  0.6964E+00  0.7234E+00
     -1.690  0.6120E+00  0.7712E+00
     -1.613  0.7225E+00  0.8283E+00
     -1.535  0.5912E+00  0.8757E+00
     -1.457  0.8009E+00  0.9384E+00
     -1.380  0.6322E+00  0.9889E+00
     -1.302  0.7383E+00  0.1047E+01
     -1.224  0.7011E+00  0.1104E+01
     -1.146  0.8254E+00  0.1168E+01
     -1.069  0.7055E+00  0.1223E+01
     -0.991  0.8558E+00  0.1290E+01
     -0.913  0.7528E+00  0.1350E+01
     -0.836  0.8470E+00  0.1415E+01
     -0.758  0.8131E+00  0.1480E+01
     -0.680  0.8570E+00  0.1547E+01
     -0.603  0.8059E+00  0.1611E+01
     -0.525  0.8566E+00  0.1678E+01
     -0.447  0.8647E+00  0.1746E+01
     -0.370  0.9530E+00  0.1820E+01
     -0.292  0.7732E+00  0.1881E+01
     -0.214  0.1053E+01  0.1963E+01
     -0.137  0.8436E+00  0.2031E+01
     -0.059  0.9669E+00  0.2106E+01
      0.019  0.8896E+00  0.2176E+01
      0.096  0.9744E+00  0.2252E+01
      0.174  0.1035E+01  0.2334E+01
      0.252  0.9179E+00  0.2406E+01
      0.329  0.9003E+00  0.2478E+01
      0.407  0.1125E+01  0.2566E+01
      0.485  0.9656E+00  0.2643E+01
      0.562  0.1000E+01  0.2722E+01
      0.640  0.9290E+00  0.2797E+01
      0.718  0.1185E+01  0.2889E+01
      0.796  0.9745E+00  0.2965E+01
      0.873  0.1143E+01  0.3055E+01
      0.951  0.9183E+00  0.3127E+01
      1.029  0.1170E+01  0.3218E+01
      1.106  0.1109E+01  0.3306E+01
      1.184  0.1141E+01  0.3396E+01
      1.262  0.9857E+00  0.3474E+01
      1.339  0.1221E+01  0.3571E+01
      1.417  0.1087E+01  0.3658E+01
      1.495  0.1184E+01  0.3752E+01
      1.572  0.1037E+01  0.3835E+01
      1.650  0.1253E+01  0.3936E+01
      1.728  0.1067E+01  0.4022E+01
      1.805  0.1165E+01  0.4117E+01
      1.883  0.1124E+01  0.4208E+01
      1.961  0.1180E+01  0.4303E+01
      2.038  0.1100E+01  0.4390E+01
      2.116  0.1423E+01  0.4503E+01
      2.194  0.1172E+01  0.4595E+01
      2.271  0.1124E+01  0.4685E+01
      2.349  0.1306E+01  0.4787E+01
      2.427  0.1258E+01  0.4887E+01
      2.504  0.1303E+01  0.4989E+01
      2.582  0.1238E+01  0.5087E+01
      2.660  0.1335E+01  0.5193E+01
      2.737  0.1276E+01  0.5296E+01
      2.815  0.1214E+01  0.5395E+01
      2.893  0.1246E+01  0.5497E+01
      2.971  0.1466E+01  0.5614E+01
      3.048  0.1211E+01  0.5711E+01
      3.126  0.1196E+01  0.5807E+01
      3.204  0.1479E+01  0.5925E+01
      3.281  0.1257E+01  0.6025E+01
      3.359  0.1456E+01  0.6139E+01
      3.437  0.1263E+01  0.6240E+01
      3.514  0.1487E+01  0.6357E+01
      3.592  0.1328E+01  0.6462E+01
      3.670  0.1465E+01  0.6578E+01
      3.747  0.1372E+01  0.6688E+01
      3.825  0.1455E+01  0.6802E+01
      3.903  0.1416E+01  0.6915E+01
      3.980  0.1372E+01  0.7024E+01
      4.058  0.1625E+01  0.7152E+01
      4.136  0.1429E+01  0.7266E+01
      4.213  0.1488E+01  0.7384E+01
      4.291  0.1358E+01  0.7494E+01
      4.369  0.1735E+01  0.7631E+01
      4.446  0.1585E+01  0.7757E+01
      4.524  0.1451E+01  0.7875E+01
      4.602  0.1591E+01  0.8000E+01
      4.679  0.1619E+01  0.8130E+01
      4.757  0.1518E+01  0.8251E+01
      4.835  0.1569E+01  0.8376E+01
      4.912  0.1429E+01  0.8491E+01
      4.990  0.1571E+01  0.8617E+01
      5.068  0.1561E+01  0.8740E+01
      5.146  0.1348E+01  0.8851E+01
      5.223  0.1461E+01  0.8966E+01
      5.301  0.1495E+01  0.9085E+01
      5.379  0.1472E+01  0.9202E+01
      5.456  0.1523E+01  0.9322E+01
      5.534  0.1284E+01  0.9425E+01
      5.612  0.1443E+01  0.9540E+01
      5.689  0.1558E+01  0.9664E+01
      5.767  0.1507E+01  0.9783E+01
      5.845  0.1514E+01  0.9902E+01
      5.922  0.1536E+01  0.1002E+02
      6.000  0.1515E+01  0.1014E+02
      6.078  0.1729E+01  0.1028E+02
      6.155  0.1379E+01  0.1039E+02
      6.233  0.1823E+01  0.1053E+02
      6.311  0.1461E+01  0.1065E+02
      6.388  0.1573E+01  0.1078E+02
      6.466  0.1649E+01  0.1091E+02
      6.544  0.1529E+01  0.1103E+02
      6.621  0.1593E+01  0.1116E+02
      6.699  0.1808E+01  0.1130E+02
      6.777  0.1684E+01  0.1144E+02
      6.854  0.1501E+01  0.1156E+02
      6.932  0.1476E+01  0.1167E+02
      7.010  0.1870E+01  0.1182E+02
      7.087  0.1628E+01  0.1196E+02
      7.165  0.1713E+01  0.1209E+02
      7.243  0.1659E+01  0.1222E+02
      7.321  0.1651E+01  0.1235E+02
      7.398  0.1754E+01  0.1249E+02
      7.476  0.1626E+01  0.1263E+02
      7.554  0.1781E+01  0.1277E+02
      7.631  0.1726E+01  0.1290E+02
      7.709  0.1813E+01  0.1305E+02
      7.787  0.1711E+01  0.1318E+02
      7.864  0.1723E+01  0.1332E+02
      7.942  0.1652E+01  0.1345E+02
      8.020  0.1747E+01  0.1359E+02
      8.097  0.1970E+01  0.1374E+02
      8.175  0.1820E+01  0.1389E+02
      8.253  0.1773E+01  0.1403E+02
      8.330  0.1584E+01  0.1416E+02
      8.408  0.2018E+01  0.1432E+02
      8.486  0.1592E+01  0.1444E+02
      8.563  0.1888E+01  0.1459E+02
      8.641  0.1955E+01  0.1475E+02
      8.719  0.1678E+01  0.1488E+02
      8.796  0.1934E+01  0.1504E+02
      8.874  0.1938E+01  0.1519E+02
      8.952  0.1708E+01  0.1532E+02
      9.029  0.1696E+01  0.1546E+02
      9.107  0.2040E+01  0.1562E+02
      9.185  0.1904E+01  0.1577E+02
      9.263  0.2086E+01  0.1594E+02
      9.340  0.1668E+01  0.1607E+02
      9.418  0.1851E+01  0.1622E+02
      9.496  0.1970E+01  0.1637E+02
      9.573  0.1940E+01  0.1653E+02
      9.651  0.1965E+01  0.1668E+02
      9.729  0.1802E+01  0.1683E+02
      9.806  0.2102E+01  0.1699E+02
      9.884  0.1852E+01  0.1714E+02
      9.962  0.2112E+01  0.1731E+02
     10.039  0.1647E+01  0.1744E+02
     10.117  0.2131E+01  0.1761E+02
     10.195  0.1938E+01  0.1776E+02
     10.272  0.2093E+01  0.1793E+02
     10.350  0.2049E+01  0.1809E+02
     10.428  0.1813E+01  0.1823E+02
     10.505  0.2075E+01  0.1840E+02
     10.583  0.2012E+01  0.1856E+02
     10.661  0.2056E+01  0.1872E+02
     10.738  0.1991E+01  0.1888E+02
     10.816  0.2099E+01  0.1905E+02
     10.894  0.1901E+01  0.1920E+02
     10.971  0.2160E+01  0.1938E+02
     11.049  0.2137E+01  0.1955E+02
     11.127  0.1863E+01  0.1969E+02
     11.204  0.2177E+01  0.1987E+02
     11.282  0.2090E+01  0.2003E+02
     11.360  0.2110E+01  0.2020E+02
     11.438  0.2226E+01  0.2037E+02
     11.515  0.2157E+01  0.2055E+02
     11.593  0.2260E+01  0.2073E+02
     11.671  0.1928E+01  0.2088E+02
     11.748  0.2055E+01  0.2105E+02
     11.826  0.2229E+01  0.2122E+02
     11.904  0.2375E+01  0.2141E+02
     11.981  0.2269E+01  0.2159E+02
     12.059  0.2255E+01  0.2177E+02
     12.137  0.2186E+01  0.2194E+02
     12.214  0.2311E+01  0.2213E+02
     12.292  0.2512E+01  0.2233E+02
     12.370  0.2268E+01  0.2251E+02
     12.447  0.2417E+01  0.2270E+02
     12.525  0.2635E+01  0.2291E+02
     12.603  0.2339E+01  0.2310E+02
     12.680  0.2263E+01  0.2328E+02
     12.758  0.2454E+01  0.2348E+02
     12.836  0.2315E+01  0.2366E+02
     12.913  0.2469E+01  0.2386E+02
     12.991  0.2092E+01  0.2402E+02
     13.069  0.2316E+01  0.2420E+02
     13.146  0.2196E+01  0.2438E+02
     13.224  0.2333E+01  0.2457E+02
     13.302  0.2374E+01  0.2475E+02
     13.379  0.2202E+01  0.2493E+02
     13.457  0.2210E+01  0.2511E+02
     13.535  0.2103E+01  0.2527E+02
     13.613  0.2086E+01  0.2544E+02
     13.690  0.2126E+01  0.2561E+02
     13.768  0.2380E+01  0.2580E+02
     13.846  0.2183E+01  0.2597E+02
     13.923  0.2193E+01  0.2614E+02
     14.001  0.2069E+01  0.2631E+02
     14.079  0.2093E+01  0.2648E+02
     14.156  0.2149E+01  0.2665E+02
     14.234  0.2214E+01  0.2682E+02
     14.312  0.2260E+01  0.2700E+02
     14.389  0.2261E+01  0.2718E+02
     14.467  0.1863E+01  0.2733E+02
     14.545  0.2390E+01  0.2752E+02
     14.622  0.2093E+01  0.2769E+02
     14.700  0.2136E+01  0.2785E+02
     14.778  0.2196E+01  0.2803E+02
     14.855  0.1965E+01  0.2819E+02
     14.933  0.2252E+01  0.2836E+02
     15.011  0.1960E+01  0.2852E+02
     15.088  0.2223E+01  0.2870E+02
     15.166  0.1874E+01  0.2885E+02
     15.244  0.2335E+01  0.2903E+02
     15.321  0.1977E+01  0.2919E+02
     15.399  0.2162E+01  0.2936E+02
     15.477  0.2013E+01  0.2952E+02
     15.554  0.1787E+01  0.2966E+02
     15.632  0.1743E+01  0.2980E+02
     15.710  0.1993E+01  0.2996E+02
     15.788  0.1910E+01  0.3011E+02
     15.865  0.1689E+01  0.3025E+02
     15.943  0.1686E+01  0.3038E+02
     16.021  0.1771E+01  0.3052E+02
     16.098  0.1478E+01  0.3064E+02
     16.176  0.1513E+01  0.3076E+02
     16.254  0.1365E+01  0.3087E+02
     16.331  0.1248E+01  0.3097E+02
     16.409  0.1182E+01  0.3106E+02
     16.487  0.1126E+01  0.3115E+02
     16.564  0.1130E+01  0.3124E+02
     16.642  0.1180E+01  0.3134E+02
     16.720  0.1022E+01  0.3142E+02
     16.797  0.8947E+00  0.3149E+02
     16.875  0.1031E+01  0.3157E+02
     16.953  0.8645E+00  0.3164E+02
     17.030  0.7528E+00  0.3170E+02
     17.108  0.8157E+00  0.3176E+02
     17.186  0.6960E+00  0.3182E+02
     17.263  0.5747E+00  0.3187E+02
     17.341  0.4728E+00  0.3190E+02
     17.419  0.3682E+00  0.3193E+02
     17.496  0.2739E+00  0.3196E+02
     17.574  0.1695E+00  0.3197E+02
     17.652  0.2323E+00  0.3199E+02
     17.730  0.8646E-01  0.3200E+02
     17.807  0.5148E-01  0.3200E+02
     17.885  0.0000E+00  0.3200E+02
     17.963  0.0000E+00  0.3200E+02
     18.040  0.0000E+00  0.3200E+02
     18.118  0.0000E+00  0.3200E+02
     18.196  0.0000E+00  0.3200E+02
     18.273  0.0000E+00  0.3200E+02
     18.351  0.0000E+00  0.3200E+02
     18.429  0.0000E+00  0.3200E+02
     18.506  0.0000E+00  0.3200E+02
     18.584  0.0000E+00  0.3200E+02
     18.662  0.0000E+00  0.3200E+02
     18.739  0.0000E+00  0.3200E+02
     18.817  0.0000E+00  0.3200E+02
