    4    4    1    1
  0.1801146E+02  0.4161051E-09  0.4161051E-09  0.4161051E-09  0.5000000E-15
  1.000000000000000E-004
  CAR 
 unknown system                          
   12 1330   16
 
  0.0000000E+00  0.0000000E+00  0.0000000E+00  0.2143347E-04
   1       -3.4274
   2        4.4031
   3        4.4031
   4        4.4031
   5        5.5152
   6        5.5152
   7        5.5152
   8       12.3170
   9       12.3170
  10       12.3170
  11       12.3170
  12       12.3170
  13       12.3170
  14       12.3499
  15       12.3499
  16       12.3499
 
  0.2777778E-01  0.0000000E+00  0.0000000E+00  0.1286008E-03
   1       -3.4208
   2        4.2464
   3        4.4092
   4        4.4092
   5        5.5217
   6        5.5217
   7        5.6834
   8       11.8980
   9       11.8980
  10       12.2612
  11       12.2612
  12       12.3227
  13       12.3227
  14       12.3564
  15       12.7811
  16       12.7811
 
  0.5555556E-01  0.0000000E+00  0.0000000E+00  0.1286008E-03
   1       -3.4010
   2        3.9159
   3        4.4275
   4        4.4275
   5        5.5411
   6        5.5411
   7        6.0487
   8       11.4752
   9       11.4752
  10       12.1064
  11       12.1064
  12       12.3397
  13       12.3397
  14       12.3760
  15       13.2404
  16       13.2404
 
  0.8333333E-01  0.0000000E+00  0.0000000E+00  0.1286008E-03
   1       -3.3680
   2        3.5376
   3        4.4580
   4        4.4580
   5        5.5735
   6        5.5735
   7        6.4848
   8       11.0646
   9       11.0646
  10       11.8800
  11       11.8800
  12       12.3682
  13       12.3682
  14       12.4085
  15       13.7120
  16       13.7120
 
  0.1111111E+00  0.0000000E+00  0.0000000E+00  0.1286008E-03
   1       -3.3219
   2        3.1494
   3        4.5006
   4        4.5006
   5        5.6189
   6        5.6189
   7        6.9539
   8       10.6662
   9       10.6662
  10       11.6085
  11       11.6085
  12       12.4080
  13       12.4080
  14       12.4539
  15       14.1956
  16       14.1956
 
  0.1388889E+00  0.0000000E+00  0.0000000E+00  0.1286008E-03
   1       -3.2625
   2        2.7633
   3        4.5555
   4        4.5555
   5        5.6771
   6        5.6771
   7        7.4440
   8       10.2801
   9       10.2801
  10       11.3112
  11       11.3112
  12       12.4593
  13       12.4593
  14       12.5124
  15       14.6912
  16       14.6912
 
  0.1666667E+00  0.0000000E+00  0.0000000E+00  0.1286008E-03
   1       -3.1901
   2        2.3840
   3        4.6225
   4        4.6225
   5        5.7482
   6        5.7482
   7        7.9504
   8        9.9062
   9        9.9062
  10       11.0006
  11       11.0006
  12       12.5219
  13       12.5219
  14       12.5839
  15       15.1988
  16       15.1988
 
  0.1944444E+00  0.0000000E+00  0.0000000E+00  0.1286008E-03
   1       -3.1044
   2        2.0137
   3        4.7018
   4        4.7018
   5        5.8321
   6        5.8321
   7        8.4708
   8        9.5447
   9        9.5447
  10       10.6846
  11       10.6846
  12       12.5959
  13       12.5959
  14       12.6682
  15       15.7043
  16       15.7182
 
  0.2222222E+00  0.0000000E+00  0.0000000E+00  0.1286008E-03
   1       -3.0057
   2        1.6536
   3        4.7932
   4        4.7932
   5        5.9287
   6        5.9287
   7        9.0039
   8        9.1955
   9        9.1955
  10       10.3684
  11       10.3684
  12       12.6813
  13       12.6813
  14       12.7656
  15       15.7927
  16       16.2494
 
  0.2500000E+00  0.0000000E+00  0.0000000E+00  0.1286008E-03
   1       -2.8939
   2        1.3043
   3        4.8969
   4        4.8969
   5        6.0380
   6        6.0380
   7        8.8586
   8        8.8586
   9        9.5491
  10       10.0553
  11       10.0553
  12       12.7781
  13       12.7781
  14       12.8758
  15       15.8927
  16       16.4602
 
  0.2777778E+00  0.0000000E+00  0.0000000E+00  0.1286008E-03
   1       -2.7690
   2        0.9664
   3        5.0128
   4        5.0128
   5        6.1599
   6        6.1599
   7        8.5340
   8        8.5340
   9        9.7476
  10        9.7476
  11       10.1058
  12       12.8863
  13       12.8863
  14       12.9989
  15       16.0039
  16       16.1609
 
  0.3055556E+00  0.0000000E+00  0.0000000E+00  0.1286008E-03
   1       -2.6311
   2        0.6400
   3        5.1409
   4        5.1409
   5        6.2941
   6        6.2941
   7        8.2217
   8        8.2217
   9        9.4472
  10        9.4472
  11       10.6735
  12       13.0059
  13       13.0059
  14       13.1348
  15       15.8722
  16       15.8722
 
  0.3333333E+00  0.0000000E+00  0.0000000E+00  0.1286008E-03
   1       -2.4802
   2        0.3256
   3        5.2812
   4        5.2812
   5        6.4405
   6        6.4405
   7        7.9217
   8        7.9217
   9        9.1551
  10        9.1551
  11       11.2519
  12       13.1369
  13       13.1369
  14       13.2835
  15       15.5945
  16       15.5945
 
  0.3611111E+00  0.0000000E+00  0.0000000E+00  0.1286008E-03
   1       -2.3163
   2        0.0231
   3        5.4338
   4        5.4338
   5        6.5988
   6        6.5988
   7        7.6341
   8        7.6341
   9        8.8725
  10        8.8725
  11       11.8406
  12       13.2792
  13       13.2792
  14       13.4449
  15       15.3278
  16       15.3278
 
  0.3888889E+00  0.0000000E+00  0.0000000E+00  0.1286008E-03
   1       -2.1396
   2       -0.2672
   3        5.5986
   4        5.5986
   5        6.7685
   6        6.7685
   7        7.3588
   8        7.3588
   9        8.6005
  10        8.6005
  11       12.4393
  12       13.4330
  13       13.4330
  14       13.6190
  15       15.0721
  16       15.0721
 
  0.4166667E+00  0.0000000E+00  0.0000000E+00  0.1286008E-03
   1       -1.9499
   2       -0.5451
   3        5.7757
   4        5.7757
   5        6.9487
   6        6.9487
   7        7.0957
   8        7.0957
   9        8.3405
  10        8.3405
  11       13.0476
  12       13.5982
  13       13.5982
  14       13.8057
  15       14.8277
  16       14.8277
 
  0.4444444E+00  0.0000000E+00  0.0000000E+00  0.1286008E-03
   1       -1.7475
   2       -0.8107
   3        5.9650
   4        5.9650
   5        6.8450
   6        6.8450
   7        7.1366
   8        7.1366
   9        8.0953
  10        8.0953
  11       13.6647
  12       13.7747
  13       13.7747
  14       14.0049
  15       14.5945
  16       14.5945
 
  0.4722222E+00  0.0000000E+00  0.0000000E+00  0.1286008E-03
   1       -1.5323
   2       -1.0638
   3        6.1666
   4        6.1666
   5        6.6066
   6        6.6066
   7        7.3218
   8        7.3218
   9        7.8756
  10        7.8756
  11       13.9626
  12       13.9626
  13       14.2165
  14       14.2901
  15       14.3725
  16       14.3725
 
  0.5000000E+00  0.0000000E+00  0.0000000E+00  0.6430041E-04
   1       -1.3044
   2       -1.3044
   3        6.3804
   4        6.3804
   5        6.3804
   6        6.3804
   7        7.4331
   8        7.4331
   9        7.7528
  10        7.7528
  11       14.1619
  12       14.1619
  13       14.1619
  14       14.1619
  15       14.4404
  16       14.4404
 
  0.2777778E-01  0.2777778E-01  0.0000000E+00  0.2572016E-03
   1       -3.4142
   2        4.2526
   3        4.2526
   4        4.4153
   5        5.5281
   6        5.6898
   7        5.6898
   8       11.6659
   9       11.9041
  10       11.9041
  11       12.2669
  12       12.2669
  13       12.3284
  14       12.7872
  15       12.7872
  16       12.9002
 
  0.5555556E-01  0.2777778E-01  0.0000000E+00  0.5144033E-03
   1       -3.3944
   2        3.9221
   3        4.2710
   4        4.4336
   5        5.5476
   6        5.7091
   7        6.0550
   8       11.2902
   9       11.4813
  10       11.9223
  11       12.1121
  12       12.2396
  13       12.2840
  14       12.8055
  15       13.2412
  16       13.2465
 
  0.8333333E-01  0.2777778E-01  0.0000000E+00  0.5144033E-03
   1       -3.3614
   2        3.5438
   3        4.3018
   4        4.4640
   5        5.5800
   6        5.7413
   7        6.4911
   8       10.8994
   9       11.0707
  10       11.8858
  11       11.9528
  12       12.0281
  13       12.3126
  14       12.8361
  15       13.6718
  16       13.7181
 
  0.1111111E+00  0.2777778E-01  0.0000000E+00  0.5144033E-03
   1       -3.3153
   2        3.1557
   3        4.3448
   4        4.5067
   5        5.6253
   6        5.7862
   7        6.9602
   8       10.5117
   9       10.6723
  10       11.6144
  11       11.7595
  12       11.9953
  13       12.3525
  14       12.8788
  15       14.1361
  16       14.2017
 
  0.1388889E+00  0.2777778E-01  0.0000000E+00  0.5144033E-03
   1       -3.2560
   2        2.7696
   3        4.4002
   4        4.5616
   5        5.6836
   6        5.8440
   7        7.4503
   8       10.1320
   9       10.2862
  10       11.3171
  11       11.4620
  12       12.0500
  13       12.4039
  14       12.9339
  15       14.6205
  16       14.6973
 
  0.1666667E+00  0.2777778E-01  0.0000000E+00  0.5144033E-03
   1       -3.1835
   2        2.3904
   3        4.4678
   4        4.6286
   5        5.7547
   6        5.9145
   7        7.9566
   8        9.7622
   9        9.9124
  10       11.0065
  11       11.1505
  12       12.1168
  13       12.4667
  14       13.0011
  15       15.1206
  16       15.2048
 
  0.1944444E+00  0.2777778E-01  0.0000000E+00  0.5144033E-03
   1       -3.0979
   2        2.0201
   3        4.5477
   4        4.7079
   5        5.8385
   6        5.9977
   7        8.4769
   8        9.4034
   9        9.5508
  10       10.6906
  11       10.8337
  12       12.1957
  13       12.5409
  14       13.0806
  15       15.6346
  16       15.7253
 
  0.2222222E+00  0.2777778E-01  0.0000000E+00  0.5144033E-03
   1       -2.9991
   2        1.6600
   3        4.6399
   4        4.7993
   5        5.9352
   6        6.0936
   7        9.0100
   8        9.0559
   9        9.2016
  10       10.3744
  11       10.5168
  12       12.2866
  13       12.6265
  14       13.1724
  15       15.8574
  16       16.1614
 
  0.2500000E+00  0.2777778E-01  0.0000000E+00  0.5144033E-03
   1       -2.8873
   2        1.3107
   3        4.7444
   4        4.9030
   5        6.0444
   6        6.2020
   7        8.7201
   8        8.8647
   9        9.5552
  10       10.0614
  11       10.2034
  12       12.3895
  13       12.7235
  14       13.2765
  15       15.9571
  16       16.2210
 
  0.2777778E+00  0.2777778E-01  0.0000000E+00  0.5144033E-03
   1       -2.7624
   2        0.9728
   3        4.8611
   4        5.0189
   5        6.1662
   6        6.3229
   7        8.3962
   8        8.5401
   9        9.7538
  10        9.8956
  11       10.1118
  12       12.5044
  13       12.8320
  14       13.3929
  15       15.9147
  16       16.0700
 
  0.3055556E+00  0.2777778E-01  0.0000000E+00  0.5144033E-03
   1       -2.6245
   2        0.6465
   3        4.9901
   4        5.1470
   5        6.3003
   6        6.4562
   7        8.0843
   8        8.2278
   9        9.4534
  10        9.5951
  11       10.6795
  12       12.6311
  13       12.9518
  14       13.5216
  15       15.6185
  16       15.8190
 
  0.3333333E+00  0.2777778E-01  0.0000000E+00  0.5144033E-03
   1       -2.4736
   2        0.3320
   3        5.1314
   4        5.2873
   5        6.4465
   6        6.6015
   7        7.7846
   8        7.9278
   9        9.1615
  10        9.3032
  11       11.2578
  12       12.7698
  13       13.0831
  14       13.6626
  15       15.3328
  16       15.5418
 
  0.3611111E+00  0.2777778E-01  0.0000000E+00  0.5144033E-03
   1       -2.3098
   2        0.0296
   3        5.2850
   4        5.4399
   5        6.6044
   6        6.7587
   7        7.4974
   8        7.6402
   9        8.8791
  10        9.0208
  11       11.8465
  12       12.9202
  13       13.2258
  14       13.8160
  15       15.0577
  16       15.2753
 
  0.3888889E+00  0.2777778E-01  0.0000000E+00  0.5144033E-03
   1       -2.1330
   2       -0.2607
   3        5.4508
   4        5.6047
   5        6.7723
   6        6.9272
   7        7.2239
   8        7.3649
   9        8.6073
  10        8.7489
  11       12.4451
  12       13.0824
  13       13.3798
  14       13.9817
  15       14.7934
  16       15.0199
 
  0.4166667E+00  0.2777778E-01  0.0000000E+00  0.5144033E-03
   1       -1.9434
   2       -0.5387
   3        5.6288
   4        5.7818
   5        6.9108
   6        7.0029
   7        7.1018
   8        7.1057
   9        8.3479
  10        8.4886
  11       13.0531
  12       13.2562
  13       13.5453
  14       14.1596
  15       14.5401
  16       14.7755
 
  0.4444444E+00  0.2777778E-01  0.0000000E+00  0.5144033E-03
   1       -1.7410
   2       -0.8042
   3        5.8190
   4        5.9711
   5        6.6992
   6        6.8511
   7        7.1532
   8        7.2907
   9        8.1047
  10        8.2419
  11       13.4416
  12       13.6686
  13       13.7238
  14       14.2979
  15       14.3499
  16       14.5423
 
  0.4722222E+00  0.2777778E-01  0.0000000E+00  0.5144033E-03
   1       -1.5258
   2       -1.0573
   3        6.0214
   4        6.1727
   5        6.4622
   6        6.6127
   7        7.3446
   8        7.4646
   9        7.8956
  10        8.0147
  11       13.6386
  12       13.9098
  13       14.0668
  14       14.2960
  15       14.3202
  16       14.5524
 
  0.5000000E+00  0.2777778E-01  0.0000000E+00  0.2572016E-03
   1       -1.2979
   2       -1.2979
   3        6.2359
   4        6.2359
   5        6.3865
   6        6.3865
   7        7.5048
   8        7.5048
   9        7.8433
  10        7.8433
  11       13.8470
  12       13.8470
  13       14.1094
  14       14.1094
  15       14.7670
  16       14.7670
 
  0.5555556E-01  0.5555556E-01  0.0000000E+00  0.2572016E-03
   1       -3.3746
   2        3.9408
   3        3.9408
   4        4.4519
   5        5.5670
   6        6.0741
   7        6.0741
   8       10.9453
   9       11.4996
  10       11.4996
  11       12.1294
  12       12.1294
  13       12.3627
  14       13.2648
  15       13.2648
  16       13.3269
 
  0.8333333E-01  0.5555556E-01  0.0000000E+00  0.5144033E-03
   1       -3.3417
   2        3.5626
   3        3.9718
   4        4.4823
   5        5.5994
   6        6.1059
   7        6.5100
   8       10.5703
   9       11.0890
  10       11.5301
  11       11.9032
  12       12.1581
  13       12.2798
  14       13.2953
  15       13.5993
  16       13.7363
 
  0.1111111E+00  0.5555556E-01  0.0000000E+00  0.5144033E-03
   1       -3.2955
   2        3.1746
   3        4.0153
   4        4.5250
   5        5.6447
   6        6.1503
   7        6.9790
   8       10.1920
   9       10.6906
  10       11.5727
  11       11.6319
  12       12.0592
  13       12.1984
  14       13.3379
  15       13.9940
  16       14.2199
 
  0.1388889E+00  0.5555556E-01  0.0000000E+00  0.5144033E-03
   1       -3.2362
   2        2.7886
   3        4.0713
   4        4.5798
   5        5.7030
   6        6.2075
   7        7.4690
   8        9.8183
   9       10.3045
  10       11.3348
  11       11.6276
  12       11.7800
  13       12.2501
  14       13.3928
  15       14.4441
  16       14.7155
 
  0.1666667E+00  0.5555556E-01  0.0000000E+00  0.5144033E-03
   1       -3.1637
   2        2.4094
   3        4.1396
   4        4.6469
   5        5.7740
   6        6.2772
   7        7.9752
   8        9.4525
   9        9.9307
  10       11.0244
  11       11.4764
  12       11.6945
  13       12.3133
  14       13.4598
  15       14.9243
  16       15.2230
 
  0.1944444E+00  0.5555556E-01  0.0000000E+00  0.5144033E-03
   1       -3.0781
   2        2.0392
   3        4.2203
   4        4.7262
   5        5.8578
   6        6.3596
   7        8.4954
   8        9.0962
   9        9.5691
  10       10.7087
  11       11.1633
  12       11.7737
  13       12.3880
  14       13.5391
  15       15.4250
  16       15.7424
 
  0.2222222E+00  0.5555556E-01  0.0000000E+00  0.5144033E-03
   1       -2.9794
   2        1.6791
   3        4.3135
   4        4.8176
   5        5.9544
   6        6.4545
   7        8.7504
   8        9.0284
   9        9.2199
  10       10.3926
  11       10.8486
  12       11.8649
  13       12.4742
  14       13.6305
  15       15.9422
  16       16.0398
 
  0.2500000E+00  0.5555556E-01  0.0000000E+00  0.5144033E-03
   1       -2.8676
   2        1.3299
   3        4.4190
   4        4.9213
   5        6.0635
   6        6.5618
   7        8.4157
   8        8.8830
   9        9.5734
  10       10.0798
  11       10.5365
  12       11.9682
  13       12.5718
  14       13.7341
  15       15.8421
  16       16.1385
 
  0.2777778E+00  0.5555556E-01  0.0000000E+00  0.5144033E-03
   1       -2.7427
   2        0.9920
   3        4.5368
   4        5.0372
   5        6.1851
   6        6.6814
   7        8.0923
   8        8.5584
   9        9.7724
  10       10.1299
  11       10.2298
  12       12.0836
  13       12.6809
  14       13.8499
  15       15.5313
  16       15.9579
 
  0.3055556E+00  0.5555556E-01  0.0000000E+00  0.5144033E-03
   1       -2.6048
   2        0.6657
   3        4.6671
   4        5.1653
   5        6.3189
   6        6.8133
   7        7.7808
   8        8.2461
   9        9.4722
  10        9.9304
  11       10.6974
  12       12.2111
  13       12.8015
  14       13.9779
  15       15.2308
  16       15.6716
 
  0.3333333E+00  0.5555556E-01  0.0000000E+00  0.5144033E-03
   1       -2.4540
   2        0.3513
   3        4.8096
   4        5.3056
   5        6.4644
   6        6.9571
   7        7.4816
   8        7.9462
   9        9.1806
  10        9.6394
  11       11.2756
  12       12.3505
  13       12.9335
  14       14.1180
  15       14.9411
  16       15.3954
 
  0.3611111E+00  0.5555556E-01  0.0000000E+00  0.5144033E-03
   1       -2.2901
   2        0.0489
   3        4.9645
   4        5.4582
   5        6.6199
   6        7.1125
   7        7.1965
   8        7.6585
   9        8.8987
  10        9.3579
  11       11.8640
  12       12.5019
  13       13.0769
  14       14.2703
  15       14.6623
  16       15.1296
 
  0.3888889E+00  0.5555556E-01  0.0000000E+00  0.5144033E-03
   1       -2.1134
   2       -0.2413
   3        5.1316
   4        5.6230
   5        6.7669
   6        6.9436
   7        7.2786
   8        7.3832
   9        8.6280
  10        9.0866
  11       12.4622
  12       12.6653
  13       13.2319
  14       14.3945
  15       14.4347
  16       14.8745
 
  0.4166667E+00  0.5555556E-01  0.0000000E+00  0.5144033E-03
   1       -1.9238
   2       -0.5192
   3        5.3110
   4        5.8001
   5        6.6333
   6        6.9947
   7        7.1202
   8        7.4530
   9        8.3713
  10        8.8265
  11       12.8405
  12       13.0693
  13       13.3988
  14       14.1380
  15       14.6111
  16       14.6301
 
  0.4444444E+00  0.5555556E-01  0.0000000E+00  0.5144033E-03
   1       -1.7214
   2       -0.7848
   3        5.5026
   4        5.9894
   5        6.3880
   6        6.8694
   7        7.1803
   8        7.6261
   9        8.1386
  10        8.5785
  11       13.0276
  12       13.5709
  13       13.6916
  14       13.8928
  15       14.3967
  16       14.7996
 
  0.4722222E+00  0.5555556E-01  0.0000000E+00  0.5144033E-03
   1       -1.5062
   2       -1.0378
   3        5.7063
   4        6.1495
   5        6.1910
   6        6.6310
   7        7.3798
   8        7.7200
   9        8.0081
  10        8.3449
  11       13.2264
  12       13.6591
  13       13.7627
  14       14.1743
  15       14.3135
  16       15.0000
 
  0.5000000E+00  0.5555556E-01  0.0000000E+00  0.2572016E-03
   1       -1.2783
   2       -1.2783
   3        5.9220
   4        5.9220
   5        6.4048
   6        6.4048
   7        7.5807
   8        7.5807
   9        8.1339
  10        8.1339
  11       13.4369
  12       13.4369
  13       13.9630
  14       13.9630
  15       14.9453
  16       14.9453
 
  0.8333333E-01  0.8333333E-01  0.0000000E+00  0.2572016E-03
   1       -3.3087
   2        3.5939
   3        3.5939
   4        4.5128
   5        5.6318
   6        6.5416
   7        6.5416
   8       10.2030
   9       11.1195
  10       11.1195
  11       11.9322
  12       11.9322
  13       12.4199
  14       13.6267
  15       13.7667
  16       13.7667
 
  0.1111111E+00  0.8333333E-01  0.0000000E+00  0.5144033E-03
   1       -3.2625
   2        3.2060
   3        3.6377
   4        4.5555
   5        5.6771
   6        6.5857
   7        7.0103
   8        9.8289
   9       10.7211
  10       11.1622
  11       11.6612
  12       11.9728
  13       12.3474
  14       13.8093
  15       13.8571
  16       14.2503
 
  0.1388889E+00  0.8333333E-01  0.0000000E+00  0.5144033E-03
   1       -3.2032
   2        2.8202
   3        3.6941
   4        4.6103
   5        5.7352
   6        6.6424
   7        7.5001
   8        9.4577
   9       10.3350
  10       11.2171
  11       11.3644
  12       12.0250
  13       12.1315
  14       13.8641
  15       14.2321
  16       14.7458
 
  0.1666667E+00  0.8333333E-01  0.0000000E+00  0.5144033E-03
   1       -3.1308
   2        2.4411
   3        3.7629
   4        4.6774
   5        5.8062
   6        6.7116
   7        8.0062
   8        9.0935
   9        9.9612
  10       11.0543
  11       11.2841
  12       11.8551
  13       12.0888
  14       13.9310
  15       14.6762
  16       15.2533
 
  0.1944444E+00  0.8333333E-01  0.0000000E+00  0.5144033E-03
   1       -3.0452
   2        2.0710
   3        3.8442
   4        4.7566
   5        5.8900
   6        6.7933
   7        8.5262
   8        8.7382
   9        9.5997
  10       10.7387
  11       11.3634
  12       11.5554
  13       12.1641
  14       14.0100
  15       15.1569
  16       15.7726
 
  0.2222222E+00  0.8333333E-01  0.0000000E+00  0.5144033E-03
   1       -2.9465
   2        1.7110
   3        3.9379
   4        4.8481
   5        5.9864
   6        6.8874
   7        8.3929
   8        9.0590
   9        9.2505
  10       10.4230
  11       11.2480
  12       11.4547
  13       12.2510
  14       14.1012
  15       15.6613
  16       15.7770
 
  0.2500000E+00  0.8333333E-01  0.0000000E+00  0.5144033E-03
   1       -2.8347
   2        1.3619
   3        4.0442
   4        4.9518
   5        6.0953
   6        6.9938
   7        8.0584
   8        8.9136
   9        9.6038
  10       10.1104
  11       10.9406
  12       11.5583
  13       12.3494
  14       14.2046
  15       15.4531
  16       16.0350
 
  0.2777778E+00  0.8333333E-01  0.0000000E+00  0.5144033E-03
   1       -2.7099
   2        1.0240
   3        4.1628
   4        5.0677
   5        6.2165
   6        7.1125
   7        7.7352
   8        8.5890
   9        9.8034
  10       10.1600
  11       10.6371
  12       11.6739
  13       12.4594
  14       14.3201
  15       15.1396
  16       15.7411
 
  0.3055556E+00  0.8333333E-01  0.0000000E+00  0.5144033E-03
   1       -2.5720
   2        0.6978
   3        4.2939
   4        5.1958
   5        6.3495
   6        7.2431
   7        7.4240
   8        8.2767
   9        9.5036
  10       10.3400
  11       10.7272
  12       11.8016
  13       12.5809
  14       14.4476
  15       14.8368
  16       15.4563
 
  0.3333333E+00  0.8333333E-01  0.0000000E+00  0.5144033E-03
   1       -2.4212
   2        0.3835
   3        4.4373
   4        5.3361
   5        6.4925
   6        7.1268
   7        7.3854
   8        7.9767
   9        9.2127
  10       10.0509
  11       11.3050
  12       11.9414
  13       12.7140
  14       14.5449
  15       14.5873
  16       15.1811
 
  0.3611111E+00  0.8333333E-01  0.0000000E+00  0.5144033E-03
   1       -2.2574
   2        0.0812
   3        4.5932
   4        5.4887
   5        6.6309
   6        6.8581
   7        7.5387
   8        7.6891
   9        8.9320
  10        9.7710
  11       11.8928
  12       12.0932
  13       12.8586
  14       14.2641
  15       14.7390
  16       14.9158
 
  0.3888889E+00  0.8333333E-01  0.0000000E+00  0.5144033E-03
   1       -2.0807
   2       -0.2090
   3        4.7613
   4        5.6535
   5        6.5301
   6        6.8525
   7        7.4138
   8        7.7010
   9        8.6640
  10        9.5009
  11       12.2571
  12       12.4899
  13       13.0154
  14       13.9946
  15       14.6609
  16       14.9027
 
  0.4166667E+00  0.8333333E-01  0.0000000E+00  0.5144033E-03
   1       -1.8911
   2       -0.4869
   3        4.9417
   4        5.8306
   5        6.2760
   6        7.0239
   7        7.1507
   8        7.8651
   9        8.4166
  10        9.2416
  11       12.4329
  12       13.0868
  13       13.1930
  14       13.7365
  15       14.4164
  16       15.0783
 
  0.4444444E+00  0.8333333E-01  0.0000000E+00  0.5144033E-03
   1       -1.6888
   2       -0.7524
   3        5.1344
   4        6.0199
   5        6.0253
   6        6.9000
   7        7.2152
   8        7.9715
   9        8.2494
  10        8.9936
  11       12.6206
  12       13.3550
  13       13.4899
  14       13.7196
  15       14.1827
  16       15.2658
 
  0.4722222E+00  0.8333333E-01  0.0000000E+00  0.5144033E-03
   1       -1.4736
   2       -1.0054
   3        5.3392
   4        5.7849
   5        6.2215
   6        6.6615
   7        7.4187
   8        7.8419
   9        8.3412
  10        8.7581
  11       12.8203
  12       13.2550
  13       13.5464
  14       13.9597
  15       14.3424
  16       15.4651
 
  0.5000000E+00  0.8333333E-01  0.0000000E+00  0.2572016E-03
   1       -1.2458
   2       -1.2458
   3        5.5561
   4        5.5561
   5        6.4354
   6        6.4354
   7        7.6309
   8        7.6309
   9        8.5375
  10        8.5375
  11       13.0317
  12       13.0317
  13       13.7477
  14       13.7477
  15       14.9737
  16       14.9737
 
  0.1111111E+00  0.1111111E+00  0.0000000E+00  0.2572016E-03
   1       -3.2164
   2        3.2501
   3        3.2501
   4        4.5981
   5        5.7223
   6        7.0542
   7        7.0542
   8        9.4568
   9       10.7639
  10       10.7639
  11       11.7022
  12       11.7022
  13       12.4999
  14       13.8511
  15       14.2928
  16       14.2928
 
  0.1388889E+00  0.1111111E+00  0.0000000E+00  0.5144033E-03
   1       -3.1571
   2        2.8644
   3        3.3067
   4        4.6530
   5        5.7804
   6        7.1105
   7        7.5437
   8        9.0867
   9       10.3778
  10       10.8188
  11       11.4058
  12       11.7549
  13       12.4390
  14       14.0630
  15       14.3474
  16       14.7882
 
  0.1666667E+00  0.1111111E+00  0.0000000E+00  0.5144033E-03
   1       -3.0847
   2        2.4855
   3        3.3759
   4        4.7201
   5        5.8513
   6        7.1792
   7        8.0495
   8        8.7229
   9       10.0040
  10       10.8859
  11       11.0960
  12       11.8192
  13       12.2324
  14       14.4142
  15       14.4317
  16       15.2956
 
  0.1944444E+00  0.1111111E+00  0.0000000E+00  0.5144033E-03
   1       -2.9991
   2        2.1155
   3        3.4576
   4        4.7993
   5        5.9348
   6        7.2604
   7        8.3677
   8        8.5693
   9        9.6425
  10       10.7808
  11       10.9652
  12       11.8953
  13       11.9640
  14       14.4931
  15       14.8770
  16       15.7327
 
  0.2222222E+00  0.1111111E+00  0.0000000E+00  0.5144033E-03
   1       -2.9005
   2        1.7556
   3        3.5518
   4        4.8908
   5        6.0310
   6        7.3538
   7        8.0224
   8        9.1018
   9        9.2933
  10       10.4655
  11       11.0567
  12       11.6725
  13       11.9830
  14       14.5841
  15       15.3626
  16       15.3952
 
  0.2500000E+00  0.1111111E+00  0.0000000E+00  0.5144033E-03
   1       -2.7887
   2        1.4066
   3        3.6586
   4        4.9945
   5        6.1395
   6        7.4595
   7        7.6878
   8        8.9563
   9        9.6462
  10       10.1533
  11       11.1603
  12       11.3741
  13       12.0823
  14       14.6873
  15       15.0691
  16       15.7742
 
  0.2777778E+00  0.1111111E+00  0.0000000E+00  0.5144033E-03
   1       -2.6639
   2        1.0689
   3        3.7778
   4        5.1104
   5        6.2599
   6        7.3649
   7        7.5771
   8        8.6318
   9        9.8468
  10       10.2021
  11       11.0764
  12       11.2761
  13       12.1933
  14       14.7537
  15       14.8025
  16       15.4822
 
  0.3055556E+00  0.1111111E+00  0.0000000E+00  0.5144033E-03
   1       -2.5261
   2        0.7428
   3        3.9095
   4        5.2385
   5        6.3904
   6        7.0556
   7        7.7065
   8        8.3195
   9        9.5478
  10       10.7688
  11       10.7833
  12       11.4039
  13       12.3159
  14       14.4491
  15       14.9297
  16       15.1985
 
  0.3333333E+00  0.1111111E+00  0.0000000E+00  0.5144033E-03
   1       -2.3753
   2        0.4285
   3        4.0536
   4        5.3788
   5        6.5181
   6        6.7730
   7        7.8470
   8        8.0195
   9        9.2581
  10       10.4971
  11       11.3458
  12       11.5439
  13       12.4503
  14       14.1557
  15       14.9239
  16       15.0689
 
  0.3611111E+00  0.1111111E+00  0.0000000E+00  0.5144033E-03
   1       -2.2116
   2        0.1263
   3        4.2102
   4        5.5314
   5        6.4291
   6        6.7310
   7        7.7319
   8        7.9968
   9        8.9801
  10       10.2194
  11       11.6960
  12       11.9322
  13       12.5970
  14       13.8736
  15       14.6588
  16       15.2201
 
  0.3888889E+00  0.1111111E+00  0.0000000E+00  0.5144033E-03
   1       -2.0349
   2       -0.1638
   3        4.3791
   4        5.6962
   5        6.1652
   6        6.8878
   7        7.4565
   8        8.1497
   9        8.7208
  10        9.9511
  11       11.8602
  12       12.5230
  13       12.7606
  14       13.6029
  15       14.4037
  16       15.3832
 
  0.4166667E+00  0.1111111E+00  0.0000000E+00  0.5144033E-03
   1       -1.8454