 running on    8 nodes
 distr:  one band on    1 nodes,    8 groups
 vasp.4.6.28 25Jul05 complex 
 POSCAR found :  1 types and    4 ions
 LDA part: xc-table for Pade appr. of Perdew
 POSCAR, INCAR and KPOINTS ok, starting setup
 FFT: planning ...           1
 reading WAVECAR
 entering main loop
       N       E                     dE             d eps       ncg     rms          rms(c)
DAV:   1     0.128524541000E+02    0.12852E+02   -0.60828E+03 42560   0.986E+02
DAV:   2    -0.140156339869E+02   -0.26868E+02   -0.25209E+02 55072   0.108E+02
DAV:   3    -0.149436112599E+02   -0.92798E+00   -0.91888E+00 57184   0.148E+01
DAV:   4    -0.149506687067E+02   -0.70574E-02   -0.70552E-02 50928   0.154E+00
DAV:   5    -0.149507561934E+02   -0.87487E-04   -0.87486E-04 58488   0.177E-01    0.180E+00
DAV:   6    -0.149011607881E+02    0.49595E-01   -0.75382E-03 51096   0.441E-01    0.111E+00
DAV:   7    -0.148651858821E+02    0.35975E-01   -0.22781E-02 49456   0.729E-01    0.494E-02
DAV:   8    -0.148651846252E+02    0.12570E-05   -0.15856E-04 55816   0.790E-02    0.128E-02
DAV:   9    -0.148651874301E+02   -0.28049E-05   -0.43662E-06 55208   0.101E-02    0.128E-03
DAV:  10    -0.148651861932E+02    0.12370E-05   -0.57459E-08 57520   0.158E-03    0.296E-04
DAV:  11    -0.148651860349E+02    0.15830E-06   -0.13843E-09 39720   0.223E-04    0.304E-05
DAV:  12    -0.148651860708E+02   -0.35978E-07   -0.21995E-10 33440   0.901E-05    0.767E-06
DAV:  13    -0.148651860703E+02    0.57923E-09   -0.39224E-11 29880   0.316E-05
   1 F= -.14865186E+02 E0= -.14865138E+02  d E =-.952576E-04
