       N       E                     dE             d eps       ncg     rms          rms(c)
DAV:   1     0.787521159449E+04    0.78752E+04   -0.33460E+05  1424   0.155E+03
DAV:   2     0.409475082458E+03   -0.74657E+04   -0.71679E+04  1424   0.390E+02
DAV:   3    -0.459041643217E+03   -0.86852E+03   -0.77253E+03  1424   0.147E+02
DAV:   4    -0.492590319092E+03   -0.33549E+02   -0.33058E+02  1512   0.348E+01
DAV:   5    -0.492793162185E+03   -0.20284E+00   -0.20244E+00  1504   0.269E+00    0.716E+01
DAV:   6    -0.435143501091E+03    0.57650E+02   -0.94005E+02  1512   0.855E+01    0.337E+01
DAV:   7    -0.400550287207E+03    0.34593E+02   -0.16008E+02  1576   0.355E+01    0.522E+00
DAV:   8    -0.399736460812E+03    0.81383E+00   -0.18641E+00  1472   0.220E+00    0.340E+00
DAV:   9    -0.399512797796E+03    0.22366E+00   -0.62370E-01  1536   0.216E+00    0.265E-01
DAV:  10    -0.399514004976E+03   -0.12072E-02   -0.24580E-02  1496   0.357E-01    0.736E-02
DAV:  11    -0.399513942425E+03    0.62550E-04   -0.53029E-04  1472   0.553E-02    0.110E-02
DAV:  12    -0.399513995171E+03   -0.52746E-04   -0.67817E-05  1296   0.219E-02    0.857E-03
DAV:  13    -0.399514029400E+03   -0.34229E-04   -0.65777E-06   760   0.704E-03    0.923E-04
DAV:  14    -0.399514029153E+03    0.24663E-06   -0.38678E-07   760   0.126E-03
   1 F= -.39951403E+03 E0= -.39935642E+03  d E =-.399514E+03
