  32  32   0   0
  0.1202155E+02  0.7272832E-09  0.7272832E-09  0.7272832E-09  0.5000000E-15
  1.000000000000000E-004
  CAR 
 unknown system                          
     14.64207702     -6.53655273  301      3.63915398      1.00000000
     -6.537  0.0000E+00  0.0000E+00
     -6.466  0.0000E+00  0.0000E+00
     -6.395  0.0000E+00  0.0000E+00
     -6.325  0.0000E+00  0.0000E+00
     -6.254  0.0000E+00  0.0000E+00
     -6.184  0.0000E+00  0.0000E+00
     -6.113  0.0000E+00  0.0000E+00
     -6.042  0.0000E+00  0.0000E+00
     -5.972  0.0000E+00  0.0000E+00
     -5.901  0.0000E+00  0.0000E+00
     -5.831  0.0000E+00  0.0000E+00
     -5.760  0.0000E+00  0.0000E+00
     -5.689  0.0000E+00  0.0000E+00
     -5.619  0.8705E-11  0.6146E-12
     -5.548  0.8258E-01  0.5830E-02
     -5.478  0.4957E+00  0.4082E-01
     -5.407  0.9976E+00  0.1112E+00
     -5.336  0.7373E+00  0.1633E+00
     -5.266  0.1752E+01  0.2870E+00
     -5.195  0.2569E+01  0.4684E+00
     -5.125  0.1468E-06  0.4723E+00
     -5.054  0.9916E+00  0.5423E+00
     -4.983  0.2512E+01  0.7196E+00
     -4.913  0.2552E+01  0.8998E+00
     -4.842  0.1967E+01  0.1039E+01
     -4.772  0.2048E+01  0.1183E+01
     -4.701  0.3965E+01  0.1464E+01
     -4.630  0.3457E-02  0.1464E+01
     -4.560  0.1817E+01  0.1592E+01
     -4.489  0.5270E+01  0.1964E+01
     -4.419  0.2270E+01  0.2128E+01
     -4.348  0.1985E+01  0.2268E+01
     -4.277  0.4461E+01  0.2583E+01
     -4.207  0.1483E+01  0.2688E+01
     -4.136  0.1979E+01  0.2828E+01
     -4.066  0.2575E+01  0.3010E+01
     -3.995  0.6332E+01  0.3457E+01
     -3.925  0.2159E+01  0.3609E+01
     -3.854  0.5818E+01  0.4020E+01
     -3.783  0.4071E+01  0.4309E+01
     -3.713  0.2904E+00  0.4330E+01
     -3.642  0.4396E+01  0.4640E+01
     -3.572  0.4202E+01  0.4939E+01
     -3.501  0.5579E+01  0.5333E+01
     -3.430  0.2430E+01  0.5504E+01
     -3.360  0.6289E+01  0.5951E+01
     -3.289  0.3927E+00  0.5981E+01
     -3.219  0.8840E+01  0.6605E+01
     -3.148  0.6019E+01  0.7041E+01
     -3.077  0.2043E+01  0.7186E+01
     -3.007  0.6340E+01  0.7633E+01
     -2.936  0.4121E+01  0.7925E+01
     -2.866  0.5710E+00  0.7965E+01
     -2.795  0.9134E+01  0.8610E+01
     -2.724  0.5987E+01  0.9033E+01
     -2.654  0.2987E+01  0.9251E+01
     -2.583  0.1272E+02  0.1015E+02
     -2.513  0.5922E+01  0.1057E+02
     -2.442  0.2891E+01  0.1079E+02
     -2.371  0.4540E+01  0.1111E+02
     -2.301  0.6417E+01  0.1156E+02
     -2.230  0.8347E+01  0.1215E+02
     -2.160  0.5631E+01  0.1255E+02
     -2.089  0.9630E+01  0.1324E+02
     -2.018  0.1100E+02  0.1402E+02
     -1.948  0.9994E+01  0.1472E+02
     -1.877  0.1003E+01  0.1479E+02
     -1.807  0.1092E+02  0.1556E+02
     -1.736  0.9356E+01  0.1623E+02
     -1.665  0.1827E+02  0.1752E+02
     -1.595  0.1084E+02  0.1829E+02
     -1.524  0.1196E+02  0.1914E+02
     -1.454  0.1457E+02  0.2018E+02
     -1.383  0.1215E+02  0.2105E+02
     -1.312  0.2610E+02  0.2291E+02
     -1.242  0.2031E+02  0.2435E+02
     -1.171  0.3478E+02  0.2680E+02
     -1.101  0.1994E+02  0.2823E+02
     -1.030  0.4686E+02  0.3154E+02
     -0.960  0.3994E+02  0.3438E+02
     -0.889  0.4049E+02  0.3724E+02
     -0.818  0.4305E+02  0.4028E+02
     -0.748  0.3519E+02  0.4279E+02
     -0.677  0.4857E+02  0.4622E+02
     -0.607  0.5771E+02  0.5030E+02
     -0.536  0.6952E+02  0.5522E+02
     -0.465  0.6545E+02  0.5986E+02
     -0.395  0.8190E+02  0.6566E+02
     -0.324  0.7947E+02  0.7128E+02
     -0.254  0.7417E+02  0.7655E+02
     -0.183  0.6586E+02  0.8122E+02
     -0.112  0.6841E+02  0.8608E+02
     -0.042  0.7241E+02  0.9122E+02
      0.029  0.6654E+02  0.9594E+02
      0.099  0.6381E+02  0.1005E+03
      0.170  0.7847E+02  0.1060E+03
      0.241  0.8264E+02  0.1119E+03
      0.311  0.9046E+02  0.1183E+03
      0.382  0.1067E+03  0.1259E+03
      0.452  0.1121E+03  0.1338E+03
      0.523  0.9427E+02  0.1405E+03
      0.594  0.1233E+03  0.1493E+03
      0.664  0.1247E+03  0.1581E+03
      0.735  0.1507E+03  0.1688E+03
      0.805  0.1465E+03  0.1792E+03
      0.876  0.1350E+03  0.1888E+03
      0.947  0.9769E+02  0.1957E+03
      1.017  0.1044E+03  0.2031E+03
      1.088  0.8354E+02  0.2091E+03
      1.158  0.8214E+02  0.2149E+03
      1.229  0.9467E+02  0.2216E+03
      1.300  0.1089E+03  0.2294E+03
      1.370  0.1250E+03  0.2382E+03
      1.441  0.1176E+03  0.2466E+03
      1.511  0.1241E+03  0.2554E+03
      1.582  0.1043E+03  0.2628E+03
      1.653  0.1017E+03  0.2700E+03
      1.723  0.1153E+03  0.2782E+03
      1.794  0.9305E+02  0.2848E+03
      1.864  0.1311E+03  0.2941E+03
      1.935  0.1530E+03  0.3049E+03
      2.005  0.2147E+03  0.3201E+03
      2.076  0.1398E+03  0.3300E+03
      2.147  0.6236E+02  0.3345E+03
      2.217  0.1344E+02  0.3354E+03
      2.288  0.2867E+02  0.3374E+03
      2.358  0.4015E+01  0.3377E+03
      2.429  0.1170E+02  0.3386E+03
      2.500  0.1149E+02  0.3394E+03
      2.570  0.1918E+02  0.3407E+03
      2.641  0.1243E+02  0.3416E+03
      2.711  0.6503E+01  0.3421E+03
      2.782  0.1178E+02  0.3429E+03
      2.853  0.1073E+02  0.3437E+03
      2.923  0.1618E+02  0.3448E+03
      2.994  0.9172E+01  0.3455E+03
      3.064  0.7955E+01  0.3460E+03
      3.135  0.1006E+02  0.3467E+03
      3.206  0.2699E+01  0.3469E+03
      3.276  0.1822E+02  0.3482E+03
      3.347  0.2061E+02  0.3497E+03
      3.417  0.4354E+01  0.3500E+03
      3.488  0.8849E+01  0.3506E+03
      3.559  0.8582E+01  0.3512E+03
      3.629  0.6841E+01  0.3517E+03
      3.700  0.6433E+01  0.3522E+03
      3.770  0.1209E+02  0.3530E+03
      3.841  0.2996E+01  0.3533E+03
      3.912  0.2024E+02  0.3547E+03
      3.982  0.3774E+01  0.3549E+03
      4.053  0.1197E+02  0.3558E+03
      4.123  0.2061E+02  0.3572E+03
      4.194  0.3253E+01  0.3575E+03
      4.265  0.3816E+01  0.3578E+03
      4.335  0.6584E+01  0.3582E+03
      4.406  0.9000E+01  0.3589E+03
      4.476  0.1996E+01  0.3590E+03
      4.547  0.1270E+02  0.3599E+03
      4.618  0.1026E+02  0.3606E+03
      4.688  0.1638E+02  0.3618E+03
      4.759  0.5177E+01  0.3622E+03
      4.829  0.5199E+01  0.3625E+03
      4.900  0.1194E+02  0.3634E+03
      4.971  0.7118E+01  0.3639E+03
      5.041  0.8253E+01  0.3644E+03
      5.112  0.8550E+01  0.3651E+03
      5.182  0.5092E+01  0.3654E+03
      5.253  0.8764E+01  0.3660E+03
      5.323  0.1374E+01  0.3661E+03
      5.394  0.1809E+02  0.3674E+03
      5.465  0.3896E+01  0.3677E+03
      5.535  0.1052E+02  0.3684E+03
      5.606  0.1159E+02  0.3693E+03
      5.676  0.3684E+01  0.3695E+03
      5.747  0.5468E+01  0.3699E+03
      5.818  0.7017E+01  0.3704E+03
      5.888  0.8473E+01  0.3710E+03
      5.959  0.1113E+02  0.3718E+03
      6.029  0.4960E+01  0.3721E+03
      6.100  0.7035E+01  0.3726E+03
      6.171  0.1869E+01  0.3728E+03
      6.241  0.3818E+01  0.3730E+03
      6.312  0.1292E+02  0.3740E+03
      6.382  0.1395E+02  0.3749E+03
      6.453  0.6671E-05  0.3749E+03
      6.524  0.3080E+01  0.3752E+03
      6.594  0.3700E+01  0.3754E+03
      6.665  0.1298E+02  0.3763E+03
      6.735  0.4627E+01  0.3767E+03
      6.806  0.8766E+01  0.3773E+03
      6.877  0.2466E+01  0.3775E+03
      6.947  0.1296E-01  0.3775E+03
      7.018  0.5640E+01  0.3779E+03
      7.088  0.8239E+01  0.3784E+03
      7.159  0.2037E+01  0.3786E+03
      7.230  0.1082E+02  0.3793E+03
      7.300  0.1363E+00  0.3794E+03
      7.371  0.7440E+01  0.3799E+03
      7.441  0.1254E+02  0.3808E+03
      7.512  0.6864E+01  0.3813E+03
      7.583  0.9905E+01  0.3820E+03
      7.653  0.6048E+01  0.3824E+03
      7.724  0.8262E+01  0.3830E+03
      7.794  0.7869E+01  0.3835E+03
      7.865  0.1160E+02  0.3843E+03
      7.936  0.1033E+02  0.3851E+03
      8.006  0.8497E+01  0.3857E+03
      8.077  0.7758E+01  0.3862E+03
      8.147  0.6844E+01  0.3867E+03
      8.218  0.1198E+02  0.3876E+03
      8.288  0.9970E+01  0.3883E+03
      8.359  0.1544E+02  0.3894E+03
      8.430  0.6387E+01  0.3898E+03
      8.500  0.2480E+01  0.3900E+03
      8.571  0.1027E+02  0.3907E+03
      8.641  0.1064E+02  0.3915E+03
      8.712  0.6904E+01  0.3920E+03
      8.783  0.1425E+02  0.3930E+03
      8.853  0.8808E+01  0.3936E+03
      8.924  0.8698E+01  0.3942E+03
      8.994  0.7483E+01  0.3947E+03
      9.065  0.1087E+02  0.3955E+03
      9.136  0.1271E+02  0.3964E+03
      9.206  0.1982E+01  0.3966E+03
      9.277  0.3966E+01  0.3968E+03
      9.347  0.6931E+01  0.3973E+03
      9.418  0.1219E+02  0.3982E+03
      9.489  0.9466E+01  0.3989E+03
      9.559  0.9225E+01  0.3995E+03
      9.630  0.9748E+01  0.4002E+03
      9.700  0.5720E+01  0.4006E+03
      9.771  0.1047E+02  0.4013E+03
      9.842  0.5440E+01  0.4017E+03
      9.912  0.7280E+01  0.4022E+03
      9.983  0.5698E+01  0.4026E+03
     10.053  0.9681E+01  0.4033E+03
     10.124  0.1130E+02  0.4041E+03
     10.195  0.1720E+01  0.4043E+03
     10.265  0.1154E+02  0.4051E+03
     10.336  0.7843E+01  0.4056E+03
     10.406  0.5054E+01  0.4060E+03
     10.477  0.4333E+01  0.4063E+03
     10.548  0.4515E+01  0.4066E+03
     10.618  0.1054E+02  0.4074E+03
     10.689  0.7855E+01  0.4079E+03
     10.759  0.1044E+02  0.4087E+03
     10.830  0.1359E+02  0.4096E+03
     10.901  0.7864E+01  0.4102E+03
     10.971  0.7756E+01  0.4107E+03
     11.042  0.7662E+01  0.4113E+03
     11.112  0.1098E+02  0.4121E+03
     11.183  0.7477E+01  0.4126E+03
     11.253  0.1276E+02  0.4135E+03
     11.324  0.1571E+02  0.4146E+03
     11.395  0.4577E+01  0.4149E+03
     11.465  0.1201E+02  0.4158E+03
     11.536  0.1626E+02  0.4169E+03
     11.606  0.5946E+01  0.4174E+03
     11.677  0.1430E+02  0.4184E+03
     11.748  0.4416E+01  0.4187E+03
     11.818  0.1501E+02  0.4198E+03
     11.889  0.7421E+01  0.4203E+03
     11.959  0.6917E+01  0.4208E+03
     12.030  0.1257E+02  0.4217E+03
     12.101  0.1920E+02  0.4230E+03
     12.171  0.4288E+01  0.4233E+03
     12.242  0.9032E+01  0.4240E+03
     12.312  0.1052E+02  0.4247E+03
     12.383  0.1744E+02  0.4259E+03
     12.454  0.1064E+02  0.4267E+03
     12.524  0.4850E+01  0.4270E+03
     12.595  0.9080E+01  0.4277E+03
     12.665  0.1734E+02  0.4289E+03
     12.736  0.6833E+01  0.4294E+03
     12.807  0.9755E+01  0.4301E+03
     12.877  0.5239E+01  0.4305E+03
     12.948  0.5144E+01  0.4308E+03
     13.018  0.3374E+01  0.4311E+03
     13.089  0.6481E+01  0.4315E+03
     13.160  0.1448E+01  0.4316E+03
     13.230  0.1335E-01  0.4316E+03
     13.301  0.3290E+01  0.4319E+03
     13.371  0.0000E+00  0.4319E+03
     13.442  0.0000E+00  0.4319E+03
     13.513  0.0000E+00  0.4319E+03
     13.583  0.0000E+00  0.4319E+03
     13.654  0.1049E+00  0.4319E+03
     13.724  0.1877E+01  0.4320E+03
     13.795  0.0000E+00  0.4320E+03
     13.866  0.0000E+00  0.4320E+03
     13.936  0.0000E+00  0.4320E+03
     14.007  0.0000E+00  0.4320E+03
     14.077  0.0000E+00  0.4320E+03
     14.148  0.0000E+00  0.4320E+03
     14.219  0.0000E+00  0.4320E+03
     14.289  0.0000E+00  0.4320E+03
     14.360  0.0000E+00  0.4320E+03
     14.430  0.0000E+00  0.4320E+03
     14.501  0.0000E+00  0.4320E+03
     14.571  0.0000E+00  0.4320E+03
     14.642  0.0000E+00  0.4320E+03
