   32   32    1    1
  0.1202155E+02  0.7272832E-09  0.7272832E-09  0.7272832E-09  0.5000000E-15
  1.000000000000000E-004
  CAR 
 unknown system                          
  352   40  216
 
  0.0000000E+00  0.0000000E+00  0.0000000E+00  0.2915452E-02
   1       -5.5739
   2       -2.8782
   3       -2.8421
   4       -2.8419
   5       -2.8419
   6       -2.8417
   7       -2.8082
   8       -1.3548
   9       -1.3548
  10       -1.3542
  11       -1.3539
  12       -1.1558
  13       -1.1520
  14       -1.1512
  15       -1.0136
  16       -0.9921
  17       -0.9921
  18       -0.9788
  19       -0.9776
  20       -0.9775
  21       -0.9761
  22       -0.9761
  23       -0.9732
  24       -0.9616
  25       -0.9616
  26       -0.9360
  27       -0.7126
  28       -0.7108
  29       -0.7108
  30       -0.4524
  31       -0.4288
  32       -0.4288
  33       -0.4288
  34       -0.4283
  35       -0.4100
  36       -0.0771
  37       -0.0555
  38       -0.0555
  39       -0.0518
  40       -0.0516
  41       -0.0370
  42        0.1112
  43        0.1253
  44        0.1253
  45        0.1518
  46        0.1532
  47        0.1532
  48        0.1533
  49        0.1544
  50        0.1549
  51        0.1559
  52        0.1559
  53        0.1576
  54        0.1576
  55        0.1584
  56        0.1589
  57        0.1592
  58        0.1592
  59        0.1608
  60        0.1608
  61        0.1614
  62        0.1618
  63        0.1851
  64        0.1851
  65        0.2081
  66        0.3314
  67        0.3571
  68        0.3573
  69        0.3573
  70        0.3628
  71        0.3628
  72        0.3631
  73        0.3635
  74        0.3654
  75        0.3691
  76        0.3691
  77        0.3939
  78        0.6096
  79        0.6113
  80        0.6113
  81        0.6145
  82        0.6152
  83        0.6152
  84        0.6161
  85        0.6183
  86        0.6410
  87        0.6410
  88        0.6444
  89        0.9891
  90        1.0014
  91        1.0087
  92        1.0087
  93        1.0093
  94        1.0242
  95        1.1125
  96        1.1234
  97        1.1270
  98        1.1270
  99        1.1340
 100        1.1340
 101        1.1343
 102        1.1345
 103        1.1390
 104        1.1390
 105        1.1490
 106        1.1529
 107        1.2631
 108        1.2631
 109        1.2838
 110        1.2838
 111        1.2862
 112        1.2866
 113        1.2884
 114        1.2886
 115        1.2886
 116        1.2887
 117        1.3042
 118        1.3042
 119        1.3975
 120        1.4054
 121        1.4054
 122        1.4108
 123        1.4118
 124        1.4183
 125        1.4284
 126        1.4284
 127        1.4369
 128        1.4380
 129        1.4419
 130        1.4423
 131        1.4424
 132        1.4424
 133        1.4436
 134        1.4473
 135        1.4494
 136        1.4629
 137        1.4691
 138        1.4691
 139        1.7035
 140        1.7131
 141        1.7134
 142        1.7134
 143        1.7135
 144        1.7227
 145        1.9819
 146        1.9830
 147        1.9838
 148        1.9951
 149        1.9963
 150        1.9963
 151        1.9964
 152        1.9969
 153        1.9972
 154        1.9972
 155        1.9987
 156        2.1249
 157        2.1302
 158        2.1323
 159        2.1323
 160        2.1334
 161        2.1334
 162        2.1336
 163        2.1338
 164        2.1338
 165        2.1340
 166        2.1341
 167        2.1412
 168        2.6954
 169        2.6983
 170        2.6983
 171        2.6991
 172        3.2898
 173        3.2927
 174        3.2927
 175        3.3035
 176        3.3056
 177        3.3062
 178        3.3062
 179        3.3062
 180        3.3102
 181        3.3199
 182        3.3199
 183        3.3226
 184        5.1653
 185        5.1653
 186        5.1715
 187        7.3009
 188        7.3009
 189        7.3020
 190        7.3031
 191        9.7437
 192        9.7437
 193        9.7837
 194        9.7837
 195        9.7881
 196        9.7883
 197        9.7890
 198        9.7923
 199        9.7923
 200        9.7947
 201        9.8300
 202        9.8300
 203       10.6318
 204       10.6366
 205       10.6367
 206       11.8381
 207       11.8738
 208       11.8739
 209       11.8757
 210       11.8757
 211       11.9001
 212       12.3110
 213       12.3171
 214       12.3202
 215       12.3217
 216       12.3224
 
  0.1428571E+00  0.0000000E+00  0.0000000E+00  0.5830904E-02
   1       -5.5126
   2       -3.4950
   3       -2.7939
   4       -2.7922
   5       -2.7921
   6       -2.7921
   7       -2.2037
   8       -1.3546
   9       -1.3438
  10       -1.3438
  11       -1.3418
  12       -1.3405
  13       -1.3393
  14       -1.3393
  15       -1.3292
  16       -1.1523
  17       -1.1242
  18       -1.1230
  19       -1.0055
  20       -1.0047
  21       -1.0045
  22       -1.0045
  23       -0.6965
  24       -0.6941
  25       -0.6941
  26       -0.6661
  27       -0.6661
  28       -0.6659
  29       -0.6644
  30       -0.4832
  31       -0.4761
  32       -0.4069
  33       -0.4069
  34       -0.4068
  35       -0.4049
  36       -0.2041
  37       -0.0839
  38       -0.0839
  39       -0.0512
  40       -0.0446
  41       -0.0440
  42       -0.0440
  43        0.0904
  44        0.1133
  45        0.1223
  46        0.1223
  47        0.1283
  48        0.1288
  49        0.1313
  50        0.1323
  51        0.1323
  52        0.1544
  53        0.1581
  54        0.1583
  55        0.1583
  56        0.1776
  57        0.1792
  58        0.1792
  59        0.1923
  60        0.2217
  61        0.2245
  62        0.2245
  63        0.2345
  64        0.2348
  65        0.2375
  66        0.2375
  67        0.2393
  68        0.3769
  69        0.3769
  70        0.3783
  71        0.3798
  72        0.4298
  73        0.4298
  74        0.4509
  75        0.4539
  76        0.4539
  77        0.4571
  78        0.6036
  79        0.6036
  80        0.6046
  81        0.6069
  82        0.6251
  83        0.6267
  84        0.6270
  85        0.6270
  86        0.6301
  87        0.6554
  88        0.6554
  89        0.9296
  90        0.9342
  91        0.9347
  92        0.9347
  93        1.0333
  94        1.0675
  95        1.0725
  96        1.0725
  97        1.0744
  98        1.0947
  99        1.1268
 100        1.1268
 101        1.1436
 102        1.1456
 103        1.1456
 104        1.1513
 105        1.1862
 106        1.1862
 107        1.1893
 108        1.1941
 109        1.2850
 110        1.2850
 111        1.2861
 112        1.2882
 113        1.3425
 114        1.3425
 115        1.3450
 116        1.3471
 117        1.3713
 118        1.3713
 119        1.3718
 120        1.3725
 121        1.4085
 122        1.4109
 123        1.4109
 124        1.4113
 125        1.4332
 126        1.4471
 127        1.4520
 128        1.4566
 129        1.4566
 130        1.4589
 131        1.5034
 132        1.5050
 133        1.5050
 134        1.5101
 135        1.5396
 136        1.5398
 137        1.5439
 138        1.5439
 139        1.6536
 140        1.7334
 141        1.7335
 142        1.7335
 143        1.7335
 144        1.7733
 145        1.8007
 146        1.8017
 147        1.8017
 148        1.8023
 149        1.9613
 150        1.9623
 151        1.9764
 152        1.9795
 153        1.9800
 154        1.9800
 155        1.9820
 156        2.0274
 157        2.0274
 158        2.1072
 159        2.1072
 160        2.1072
 161        2.1072
 162        2.1082
 163        2.1082
 164        2.1251
 165        2.1312
 166        2.1336
 167        2.1412
 168        2.8206
 169        2.8206
 170        2.8208
 171        2.8238
 172        2.8701
 173        2.8710
 174        2.8733
 175        2.8733
 176        3.2984
 177        3.2992
 178        3.2992
 179        3.2993
 180        3.8760
 181        3.8760
 182        3.8764
 183        3.8767
 184        4.7766
 185        5.3265
 186        5.3265
 187        7.4769
 188        7.4769
 189        7.4782
 190        7.4790
 191        8.8230
 192        8.8230
 193        9.0287
 194        9.0287
 195        9.0313
 196        9.0345
 197        9.8707
 198        9.8708
 199        9.8710
 200        9.8710
 201       10.6596
 202       10.6598
 203       10.8131
 204       10.8131
 205       11.1463
 206       11.6086
 207       11.6088
 208       12.1182
 209       12.1182
 210       12.1200
 211       12.1204
 212       12.2582
 213       12.2616
 214       12.2616
 215       12.2636
 216       12.4194
 
  0.2857143E+00  0.0000000E+00  0.0000000E+00  0.5830904E-02
   1       -5.3297
   2       -4.0960
   3       -2.6472
   4       -2.6450
   5       -2.6448
   6       -2.6448
   7       -1.7326
   8       -1.7280
   9       -1.7279
  10       -1.7279
  11       -1.6780
  12       -1.3014
  13       -1.3014
  14       -1.3005
  15       -1.2994
  16       -1.1621
  17       -1.0745
  18       -1.0737
  19       -1.0730
  20       -1.0730
  21       -1.0422
  22       -1.0407
  23       -0.6490
  24       -0.6430
  25       -0.6430
  26       -0.6016
  27       -0.5995
  28       -0.4259
  29       -0.4259
  30       -0.4253
  31       -0.4243
  32       -0.3474
  33       -0.3442
  34       -0.3442
  35       -0.3442
  36       -0.3434
  37       -0.2760
  38       -0.2760
  39       -0.0324
  40       -0.0273
  41       -0.0273
  42       -0.0244
  43        0.0611
  44        0.0646
  45        0.0646
  46        0.0649
  47        0.0797
  48        0.0871
  49        0.0871
  50        0.0893
  51        0.0898
  52        0.0910
  53        0.0910
  54        0.0932
  55        0.1527
  56        0.1635
  57        0.1635
  58        0.1644
  59        0.1840
  60        0.1860
  61        0.1860
  62        0.1975
  63        0.2516
  64        0.3956
  65        0.3956
  66        0.3966
  67        0.3980
  68        0.4288
  69        0.4300
  70        0.4300
  71        0.4318
  72        0.5191
  73        0.5218
  74        0.5218
  75        0.5225
  76        0.5707
  77        0.5712
  78        0.5712
  79        0.5754
  80        0.5764
  81        0.6701
  82        0.6717
  83        0.6717
  84        0.6762
  85        0.6974
  86        0.6974
  87        0.7355
  88        0.7355
  89        0.8057
  90        0.8084
  91        0.8101
  92        0.8101
  93        0.9578
  94        0.9604
  95        0.9604
  96        0.9613
  97        0.9871
  98        0.9871
  99        1.1182
 100        1.2084
 101        1.2118
 102        1.2131
 103        1.2131
 104        1.2673
 105        1.2673
 106        1.2682
 107        1.2692
 108        1.2864
 109        1.2864
 110        1.2864
 111        1.2877
 112        1.3254
 113        1.3254
 114        1.3263
 115        1.3269
 116        1.3831
 117        1.3912
 118        1.3916
 119        1.3968
 120        1.3968
 121        1.4044
 122        1.4087
 123        1.4087
 124        1.4133
 125        1.4257
 126        1.4317
 127        1.4317
 128        1.4321
 129        1.4395
 130        1.4721
 131        1.5536
 132        1.5555
 133        1.5941
 134        1.6212
 135        1.6212
 136        1.6213
 137        1.6228
 138        1.6228
 139        1.6285
 140        1.6593
 141        1.6594
 142        1.6603
 143        1.6603
 144        1.7619
 145        1.7619
 146        1.8241
 147        1.8252
 148        1.8255
 149        1.8255
 150        1.8298
 151        1.9003
 152        1.9017
 153        1.9286
 154        1.9294
 155        1.9294
 156        1.9312
 157        1.9572
 158        2.0319
 159        2.0320
 160        2.0326
 161        2.0326
 162        2.0366
 163        2.0366
 164        2.1250
 165        2.1315
 166        2.1336
 167        2.1412
 168        2.5266
 169        2.5267
 170        2.5267
 171        2.5275
 172        3.0070
 173        3.0096
 174        3.0100
 175        3.0100
 176        3.2749
 177        3.2760
 178        3.2760
 179        3.2762
 180        3.8914
 181        4.6124
 182        4.6124
 183        4.6136
 184        4.6137
 185        5.7572
 186        5.7572
 187        7.7935
 188        7.7935
 189        7.7972
 190        7.7975
 191        7.9200
 192        7.9200
 193        7.9857
 194        7.9881
 195        7.9919
 196        7.9919
 197       10.1132
 198       10.1132
 199       10.1136
 200       10.1138
 201       10.7305
 202       10.7307
 203       10.9635
 204       10.9645
 205       10.9645
 206       10.9659
 207       11.2885
 208       11.2886
 209       11.6691
 210       11.6691
 211       11.6717
 212       11.6718
 213       11.8944
 214       11.8944
 215       12.2898
 216       12.2900
 
  0.4285714E+00  0.0000000E+00  0.0000000E+00  0.5830904E-02
   1       -5.0285
   2       -4.6126
   3       -2.4131
   4       -2.4078
   5       -2.4078
   6       -2.4078
   7       -2.0943
   8       -2.0940
   9       -2.0940
  10       -2.0914
  11       -1.3590
  12       -1.2406
  13       -1.2406
  14       -1.2394
  15       -1.2379
  16       -1.2081
  17       -1.1580
  18       -1.1567
  19       -1.1546
  20       -1.1546
  21       -0.9164
  22       -0.9136
  23       -0.7573
  24       -0.7572
  25       -0.5728
  26       -0.5578
  27       -0.5578
  28       -0.4668
  29       -0.4343
  30       -0.4343
  31       -0.2699
  32       -0.2655
  33       -0.2655
  34       -0.2614
  35       -0.2574
  36       -0.2563
  37       -0.2536
  38       -0.2536
  39       -0.0396
  40       -0.0372
  41       -0.0366
  42       -0.0366
  43       -0.0254
  44       -0.0254
  45       -0.0248
  46       -0.0175
  47       -0.0059
  48        0.0041
  49        0.0041
  50        0.0071
  51        0.0460
  52        0.0469
  53        0.0469
  54        0.0471
  55        0.1560
  56        0.1701
  57        0.1701
  58        0.1724
  59        0.1819
  60        0.1850
  61        0.1850
  62        0.2019
  63        0.3791
  64        0.4645
  65        0.4645
  66        0.4653
  67        0.4667
  68        0.4898
  69        0.5222
  70        0.5222
  71        0.5239
  72        0.5241
  73        0.5914
  74        0.5944
  75        0.5944
  76        0.5984
  77        0.6851
  78        0.6851
  79        0.6852
  80        0.6877
  81        0.6934
  82        0.6951
  83        0.6955
  84        0.6955
  85        0.7470
  86        0.7481
  87        0.7481
  88        0.7502
  89        0.7683
  90        0.7683
  91        0.8476
  92        0.8479
  93        0.8482
  94        0.8482
  95        0.8671
  96        0.8671
  97        1.0389
  98        1.0399
  99        1.0405
 100        1.0405
 101        1.0726
 102        1.0726
 103        1.2172
 104        1.2886
 105        1.2886
 106        1.2896
 107        1.2926
 108        1.2932
 109        1.2987
 110        1.2987
 111        1.2991
 112        1.3024
 113        1.3050
 114        1.3054
 115        1.3054
 116        1.3145
 117        1.3394
 118        1.3404
 119        1.3404
 120        1.3415
 121        1.3711
 122        1.3723
 123        1.3746
 124        1.3746
 125        1.3870
 126        1.3870
 127        1.3909
 128        1.3939
 129        1.4252
 130        1.4252
 131        1.5023
 132        1.5469
 133        1.6801
 134        1.6818
 135        1.7417
 136        1.7420
 137        1.7420
 138        1.7429
 139        1.7820
 140        1.7820
 141        1.7902
 142        1.7902
 143        1.7910
 144        1.7911
 145        1.8017
 146        1.8044
 147        1.8476
 148        1.8487
 149        1.8497
 150        1.8497
 151        1.8828
 152        1.9210
 153        1.9211
 154        1.9218
 155        1.9218
 156        1.9242
 157        1.9252
 158        1.9252
 159        2.0040
 160        2.0069
 161        2.0069
 162        2.0069
 163        2.0382
 164        2.1250
 165        2.1315
 166        2.1336
 167        2.1412
 168        2.2432
 169        2.2436
 170        2.2436
 171        2.2444
 172        2.9005
 173        3.1439
 174        3.1442
 175        3.1453
 176        3.1453
 177        3.2293
 178        3.2293
 179        3.2303
 180        3.2329
 181        5.5243
 182        5.5243
 183        5.5257
 184        5.5263
 185        6.3671
 186        6.3671
 187        6.5990
 188        6.5990
 189        6.5993
 190        6.6005
 191        7.1016
 192        7.1016
 193        8.7724
 194        8.7724
 195        8.7732
 196        8.7734
 197        9.7824
 198        9.7824
 199        9.7835
 200        9.7836
 201       10.5049
 202       10.5049
 203       10.5051
 204       10.5053
 205       10.8539
 206       10.8541
 207       11.0296
 208       11.0297
 209       11.0308
 210       11.0308
 211       11.0372
 212       11.0373
 213       12.5254
 214       12.5254
 215       12.5260
 216       12.5261
 
  0.0000000E+00  0.1428571E+00  0.0000000E+00  0.1166181E-01
   1       -5.5126
   2       -3.4947
   3       -2.8191
   4       -2.7921
   5       -2.7919
   6       -2.7668
   7       -2.2041
   8       -1.3695
   9       -1.3530
  10       -1.3462
  11       -1.3405
  12       -1.3404
  13       -1.3358
  14       -1.3301
  15       -1.3157
  16       -1.1528
  17       -1.1258
  18       -1.1229
  19       -1.0167
  20       -1.0065
  21       -1.0024
  22       -0.9901
  23       -0.6980
  24       -0.6968
  25       -0.6951
  26       -0.6809
  27       -0.6662
  28       -0.6650
  29       -0.6481
  30       -0.4818
  31       -0.4764
  32       -0.4208
  33       -0.4069
  34       -0.4064
  35       -0.3922
  36       -0.2038
  37       -0.0885
  38       -0.0802
  39       -0.0582
  40       -0.0482
  41       -0.0447
  42       -0.0311
  43        0.0883
  44        0.1123
  45        0.1140
  46        0.1261
  47        0.1283
  48        0.1292
  49        0.1326
  50        0.1351
  51        0.1442
  52        0.1471
  53        0.1552
  54        0.1582
  55        0.1672
  56        0.1742
  57        0.1771
  58        0.1783
  59        0.1946
  60        0.2140
  61        0.2166
  62        0.2266
  63        0.2289
  64        0.2351
  65        0.2377
  66        0.2480
  67        0.2511
  68        0.3640
  69        0.3731
  70        0.3808
  71        0.3831
  72        0.4248
  73        0.4292
  74        0.4455
  75        0.4557
  76        0.4558
  77        0.4676
  78        0.5983
  79        0.6009
  80        0.6024
  81        0.6038
  82        0.6231
  83        0.6293
  84        0.6300
  85        0.6313
  86        0.6334
  87        0.6552
  88        0.6588
  89        0.9181
  90        0.9334
  91        0.9351
  92        0.9484
  93        1.0346
  94        1.0693
  95        1.0733
  96        1.0744
  97        1.0752
  98        1.1015
  99        1.1265
 100        1.1291
 101        1.1359
 102        1.1451
 103        1.1480
 104        1.1527
 105        1.1786
 106        1.1846
 107        1.1862
 108        1.1941
 109        1.2694
 110        1.2861
 111        1.2873
 112        1.2972
 113        1.3297
 114        1.3442
 115        1.3468
 116        1.3556
 117        1.3593
 118        1.3718
 119        1.3732
 120        1.3827
 121        1.4031
 122        1.4114
 123        1.4162
 124        1.4177
 125        1.4324
 126        1.4436
 127        1.4539
 128        1.4555
 129        1.4561
 130        1.4622
 131        1.4948
 132        1.5040
 133        1.5044
 134        1.5183
 135        1.5304
 136        1.5396
 137        1.5452
 138        1.5515
 139        1.6541
 140        1.7261
 141        1.7335
 142        1.7336
 143        1.7408
 144        1.7726
 145        1.7937
 146        1.7995
 147        1.8056
 148        1.8107
 149        1.9607
 150        1.9627
 151        1.9749
 152        1.9776
 153        1.9794
 154        1.9795
 155        1.9810
 156        2.0258
 157        2.0284
 158        2.1018
 159        2.1056
 160        2.1073
 161        2.1075
 162        2.1090
 163        2.1129
 164        2.1329
 165        2.1335
 166        2.1338
 167        2.1344
 168        2.8136
 169        2.8198
 170        2.8209
 171        2.8324
 172        2.8639
 173        2.8701
 174        2.8713
 175        2.8812
 176        3.2876
 177        3.2984
 178        3.3006
 179        3.3112
 180        3.8635
 181        3.8757
 182        3.8760
 183        3.8894
 184        4.7708
 185        5.3265
 186        5.3323
 187        7.4727
 188        7.4761
 189        7.4791
 190        7.4834
 191        8.8228
 192        8.8233
 193        9.0070
 194        9.0307
 195        9.0311
 196        9.0566
 197        9.8354
 198        9.8702
 199        9.8741
 200        9.9034
 201       10.6504
 202       10.6597
 203       10.8126
 204       10.8151
 205       11.1536
 206       11.6047
 207       11.6091
 208       12.0865
 209       12.1195
 210       12.1217
 211       12.1401
 212       12.2454
 213       12.2619
 214       12.2644
 215       12.2807
 216       12.4011
 
  0.1428571E+00  0.1428571E+00  0.0000000E+00  0.2332362E-01
   1       -5.4515
   2       -3.4533
   3       -3.4292
   4       -2.7442
   5       -2.7432
   6       -2.1693
   7       -2.1481
   8       -1.8038
   9       -1.3797
  10       -1.3780
  11       -1.3549
  12       -1.3541
  13       -1.3382
  14       -1.3372
  15       -1.2791
  16       -1.2775
  17       -1.1251
  18       -1.1228
  19       -1.0958
  20       -0.9293
  21       -0.9175
  22       -0.7271
  23       -0.7239
  24       -0.7108
  25       -0.7045
  26       -0.6795
  27       -0.6763
  28       -0.6763
  29       -0.4775
  30       -0.4736
  31       -0.4565
  32       -0.4556
  33       -0.4429
  34       -0.3846
  35       -0.3836
  36       -0.2003
  37       -0.1889
  38       -0.0992
  39       -0.0864
  40       -0.0795
  41       -0.0711
  42       -0.0377
  43       -0.0374
  44        0.0695
  45        0.0762
  46        0.0862
  47        0.0938
  48        0.1029
  49        0.1119
  50        0.1287
  51        0.1491
  52        0.1719
  53        0.1722
  54        0.1837
  55        0.1838
  56        0.1933
  57        0.1962
  58        0.2188
  59        0.2269
  60        0.2336
  61        0.2357
  62        0.2549
  63        0.2692
  64        0.2729
  65        0.2782
  66        0.2882
  67        0.3128
  68        0.3255
  69        0.3871
  70        0.4029
  71        0.4237
  72        0.4280
  73        0.4578
  74        0.4611
  75        0.4693
  76        0.4728
  77        0.5601
  78        0.5693
  79        0.5709
  80        0.6061
  81        0.6066
  82        0.6152
  83        0.6419
  84        0.6420
  85        0.6545
  86        0.6559
  87        0.6640
  88        0.6687
  89        0.8862
  90        0.8891
  91        0.9488
  92        0.9518
  93        0.9900
  94        1.0038
  95        1.0678
  96        1.0715
  97        1.0731
  98        1.0768
  99        1.1098
 100        1.1190
 101        1.1234
 102        1.1278
 103        1.1323
 104        1.1385
 105        1.1393
 106        1.1979
 107        1.2074
 108        1.2134
 109        1.2280
 110        1.2313
 111        1.2361
 112        1.2410
 113        1.2723
 114        1.4035
 115        1.4036
 116        1.4257
 117        1.4325
 118        1.4365
 119        1.4377
 120        1.4443
 121        1.4447
 122        1.4475
 123        1.4497
 124        1.4510
 125        1.4523
 126        1.4529
 127        1.4583
 128        1.4612
 129        1.4709
 130        1.4907
 131        1.5055
 132        1.5248
 133        1.5376
 134        1.5883
 135        1.5885
 136        1.5925
 137        1.5927
 138        1.5966
 139        1.6012
 140        1.6088
 141        1.6617
 142        1.6703
 143        1.7161
 144        1.7161
 145        1.7428
 146        1.7428
 147        1.8078
 148        1.8086
 149        1.9384
 150        1.9418
 151        1.9450
 152        1.9454
 153        1.9871
 154        1.9881
 155        1.9908
 156        1.9913
 157        2.0110
 158        2.0138
 159        2.0842
 160        2.0847
 161        2.1006
 162        2.1040
 163        2.1071
 164        2.1080
 165        2.1095
 166        2.1125
 167        2.1192
 168        2.5183
 169        2.5686
 170        2.5688
 171        2.8547
 172        2.8554
 173        2.8628
 174        2.8637
 175        3.2314
 176        3.2333
 177        3.3420
 178        3.3545
 179        3.8690
 180        3.8735
 181        3.8806
 182        3.8852
 183        4.5341
 184        4.9292
 185        4.9358
 186        5.4788
 187        7.3347
 188        7.3352
 189        7.9270
 190        7.9279
 191        8.1615
 192        8.1782
 193        8.8971
 194        8.9189
 195        8.9270
 196        8.9312
 197        9.2981
 198        9.3004
 199        9.9214
 200        9.9602
 201       10.6830
 202       10.8817
 203       10.9005
 204       11.1734
 205       11.1836
 206       11.4780
 207       11.4825
 208       11.4880
 209       11.4950
 210       11.5595
 211       11.7021
 212       11.7036
 213       12.3256
 214       12.3550
 215       12.7840
 216       12.7871
 
  0.2857143E+00  0.1428571E+00  0.0000000E+00  0.2332362E-01
   1       -5.2691
   2       -4.0400
   3       -3.2827
   4       -2.6006
   5       -2.5992
   6       -2.2626
   7       -2.0250
   8       -1.7138
   9       -1.7123
  10       -1.6395
  11       -1.3926
  12       -1.3915
  13       -1.3578
  14       -1.3558
  15       -1.2280
  16       -1.1948
  17       -1.1942
  18       -1.1312
  19       -1.0397
  20       -1.0151
  21       -0.8305
  22       -0.8298
  23       -0.6330
  24       -0.6278
  25       -0.6277
  26       -0.5932
  27       -0.5885
  28       -0.5786
  29       -0.4865
  30       -0.4856
  31       -0.4139
  32       -0.3862
  33       -0.3458
  34       -0.3320
  35       -0.3225
  36       -0.3211
  37       -0.2758
  38       -0.2666
  39       -0.1658
  40       -0.1252
  41       -0.0586
  42       -0.0202
  43       -0.0191
  44       -0.0110
  45       -0.0074
  46       -0.0004
  47        0.0146
  48        0.0525
  49        0.0937
  50        0.0939
  51        0.1126
  52        0.1233
  53        0.1273
  54        0.1562
  55        0.1912
  56        0.2219
  57        0.2244
  58        0.2449
  59        0.2685
  60        0.2738
  61        0.2902
  62        0.2915
  63        0.3069
  64        0.3145
  65        0.3371
  66        0.3395
  67        0.4048
  68        0.4143
  69        0.4468
  70        0.4494
  71        0.4943
  72        0.4946
  73        0.5120
  74        0.5131
  75        0.5300
  76        0.5305
  77        0.5687
  78        0.5934
  79        0.5949
  80        0.6347
  81        0.6772
  82        0.6787
  83        0.6946
  84        0.6999
  85        0.7075
  86        0.7104
  87        0.7115
  88        0.7251
  89        0.7880
  90        0.7916
  91        0.8227
  92        0.8472
  93        0.9390
  94        0.9524
  95        0.9532
  96        0.9868
  97        1.0163
  98        1.0186
  99        1.1083
 100        1.1104
 101        1.1321
 102        1.1452
 103        1.1644
 104        1.1986
 105        1.1998
 106        1.2054
 107        1.2099
 108        1.2165
 109        1.2251
 110        1.2733
 111        1.2750
 112        1.2976
 113        1.2990
 114        1.3189
 115        1.3258
 116        1.3531
 117        1.3540
 118        1.3854
 119        1.3935
 120        1.3951
 121        1.4283
 122        1.4397
 123        1.4414
 124        1.4529
 125        1.4582
 126        1.4659
 127        1.4704
 128        1.5203
 129        1.5205
 130        1.5449
 131        1.5593
 132        1.5624
 133        1.5825
 134        1.5836
 135        1.6064
 136        1.6220
 137        1.6377
 138        1.6945
 139        1.6971
 140        1.7001
 141        1.7037
 142        1.7048
 143        1.7111
 144        1.7162
 145        1.7224
 146        1.7437
 147        1.8144
 148        1.8152
 149        1.8686
 150        1.8824
 151        1.9091
 152        1.9243
 153        1.9370
 154        1.9394
 155        1.9644
 156        1.9652
 157        1.9730
 158        1.9789
 159        2.0202
 160        2.0217
 161        2.0321
 162        2.0331
 163        2.0364
 164        2.0998
 165        2.1061
 166        2.1083
 167        2.1151
 168        2.2469
 169        2.5144
 170        2.5150
 171        2.5864
 172        2.5875
 173        2.8249
 174        2.8252
 175        2.9175
 176        3.5717
 177        3.5735
 178        3.8734
 179        3.8752
 180        3.9973
 181        4.0590
 182        4.6239
 183        4.6251
 184        5.3414
 185        5.3481
 186        5.8912
 187        7.0106
 188        7.3579
 189        7.5612
 190        7.5625
 191        7.8168
 192        7.8193
 193        8.0198
 194        8.6253
 195        8.6259
 196        8.6512
 197        9.1681
 198        9.3951
 199        9.3954
 200       10.2195
 201       10.2196
 202       10.7540
 203       10.7896
 204       10.7991
 205       10.8019
 206       10.8692
 207       11.1249
 208       11.2737
 209       11.4102
 210       11.8073
 211       11.8091
 212       11.8375
 213       11.9692
 214       11.9780
 215       12.4475
 216       12.6343
 
  0.4285714E+00  0.1428571E+00  0.0000000E+00  0.2332362E-01
   1       -4.9689
   2       -4.5546
   3       -3.0259
   4       -2.6789
   5       -2.3697
   6       -2.3680
   7       -2.0639
   8       -2.0637
   9       -1.8116
  10       -1.5355
  11       -1.3929
  12       -1.3899
  13       -1.3721
  14       -1.3702
  15       -1.3199
  16       -1.1780
  17       -1.0874
  18       -1.0863
  19       -0.9617
  20       -0.9611
  21       -0.9109
  22       -0.8907
  23       -0.7497
  24       -0.7351
  25       -0.5580
  26       -0.5449
  27       -0.5438
  28       -0.4535
  29       -0.4267
  30       -0.4222