 vasp.4.6.28 25Jul05 complex 
 executed on             LinuxIFC date 2016.01.20  22:30:05
 running on    8 nodes
 distr:  one band on    1 nodes,    8 groups


--------------------------------------------------------------------------------------------------------


 INCAR:
 POTCAR:   PAW_PBE Cu 05Jan2001                   
 POTCAR:   PAW_PBE Cu 05Jan2001                   
   VRHFIN =Cu: d10 p1                                                           
   LEXCH  = PE                                                                  
   EATOM  =  1390.9800 eV,  102.2341 Ry                                         
                                                                                
   TITEL  = PAW_PBE Cu 05Jan2001                                                
   LULTRA =        F    use ultrasoft PP ?                                      
   IUNSCR =        1    unscreen: 0-lin 1-nonlin 2-no                           
   RPACOR =    2.000    partial core radius                                     
   POMASS =   63.546; ZVAL   =   11.000    mass and valenz                      
   RCORE  =    2.300    outmost cutoff radius                                   
   RWIGS  =    2.480; RWIGS  =    1.312    wigner-seitz radius (au A)           
   ENMAX  =  273.214; ENMIN  =  204.910 eV                                      
   RCLOC  =    1.712    cutoff for local pot                                    
   LCOR   =        T    correct aug charges                                     
   LPAW   =        T    paw PP                                                  
   EAUG   =  516.456                                                            
   DEXC   =    -.008                                                            
   RMAX   =    2.789    core radius for proj-oper                               
   RAUG   =    1.300    factor for augmentation sphere                          
   RDEP   =    2.302    radius for radial grids                                 
   QCUT   =   -4.481; QGAM   =    8.962    optimization parameters              
                                                                                
   Description                                                                  
     l     E      TYP  RCUT    TYP  RCUT                                        
     2   .000     23  2.300                                                     
     2   .000     23  2.300                                                     
     0   .000     23  2.300                                                     
     0   .000     23  2.300                                                     
     1  -.200     23  2.300                                                     
     1   .000     23  2.300                                                     
     3   .000      7   .000                                                     
  local pseudopotential read in
  partial core-charges read in
  atomic valenz-charges read in
  non local Contribution for L=           2  read in
    real space projection operators read in
  non local Contribution for L=           2  read in
    real space projection operators read in
  non local Contribution for L=           0  read in
    real space projection operators read in
  non local Contribution for L=           0  read in
    real space projection operators read in
  non local Contribution for L=           1  read in
    real space projection operators read in
  non local Contribution for L=           1  read in
    real space projection operators read in
    PAW grid and wavefunctions read in
 
   number of l-projection  operators is LMAX  =           6
   number of lm-projection operators is LMMAX =          18
 

 ----------------------------------------------------------------------------- 
|                                                                             |
|  ADVICE TO THIS USER RUNNING 'VASP/VAMP'   (HEAR YOUR MASTER'S VOICE ...):  |
|                                                                             |
|      You have a (more or less) 'large supercell' and for larger cells       |
|      it might be more efficient to use real space projection operators      |
|      So try LREAL= Auto  in the INCAR   file.                               |
|      Mind: If you want to do an extremely accurate calculations keep the    |
|      reciprocal projection scheme          (i.e. LREAL=.FALSE.)             |
|                                                                             |
 ----------------------------------------------------------------------------- 

 PAW_PBE Cu 05Jan2001                   :
 energy of atom  1       EATOM=-1390.9800
 kinetic energy error for atom=    0.0032 (will be added to EATOM!!)
 
 EXHCAR: internal setup
 exchange correlation table for  LEXCH =        8
   RHO(1)=    0.500       N(1)  =     2000
   RHO(2)=  100.500       N(2)  =     4000
 
 POSCAR: Cu                                      
  positions in direct lattice
  No initial velocities read in
 


--------------------------------------------------------------------------------------------------------


 ion  position               nearest neighbor table
   1  0.015  0.000  0.000-   9 2.50  11 2.50  17 2.50  21 2.50  25 2.57  27 2.57  29 2.57  31 2.57
                            10 2.65  18 2.65  12 2.65  22 2.65
   2  0.500  0.000  0.000-   9 2.57  10 2.57  11 2.57  12 2.57  17 2.57  18 2.57  21 2.57  22 2.57
                            26 2.57  28 2.57  30 2.57  32 2.57
   3  0.000  0.500  0.000-   9 2.57  10 2.57  11 2.57  12 2.57  19 2.57  20 2.57  23 2.57  24 2.57
                            25 2.57  27 2.57  29 2.57  31 2.57
   4  0.500  0.500  0.000-   9 2.57  10 2.57  11 2.57  12 2.57  19 2.57  20 2.57  23 2.57  24 2.57
                            26 2.57  28 2.57  30 2.57  32 2.57
   5  0.000  0.000  0.500-  13 2.57  14 2.57  15 2.57  16 2.57  17 2.57  18 2.57  21 2.57  22 2.57
                            25 2.57  27 2.57  29 2.57  31 2.57
   6  0.500  0.000  0.500-  13 2.57  14 2.57  15 2.57  16 2.57  17 2.57  18 2.57  21 2.57  22 2.57
                            26 2.57  28 2.57  30 2.57  32 2.57
   7  0.000  0.500  0.500-  13 2.57  14 2.57  15 2.57  16 2.57  19 2.57  20 2.57  23 2.57  24 2.57
                            25 2.57  27 2.57  29 2.57  31 2.57
   8  0.500  0.500  0.500-  13 2.57  14 2.57  15 2.57  16 2.57  19 2.57  20 2.57  23 2.57  24 2.57
                            26 2.57  28 2.57  30 2.57  32 2.57
   9  0.250  0.250  0.000-   1 2.50   2 2.57   3 2.57   4 2.57  17 2.57  19 2.57  21 2.57  23 2.57
                            25 2.57  26 2.57  29 2.57  30 2.57
  10  0.750  0.250  0.000-   2 2.57   3 2.57   4 2.57  18 2.57  20 2.57  22 2.57  24 2.57  25 2.57
                            26 2.57  29 2.57  30 2.57   1 2.65
  11  0.250  0.750  0.000-   1 2.50   2 2.57   3 2.57   4 2.57  17 2.57  19 2.57  21 2.57  23 2.57
                            27 2.57  28 2.57  31 2.57  32 2.57
  12  0.750  0.750  0.000-   2 2.57   3 2.57   4 2.57  18 2.57  20 2.57  22 2.57  24 2.57  27 2.57
                            28 2.57  31 2.57  32 2.57   1 2.65
  13  0.250  0.250  0.500-   5 2.57   6 2.57   7 2.57   8 2.57  17 2.57  19 2.57  21 2.57  23 2.57
                            25 2.57  26 2.57  29 2.57  30 2.57
  14  0.750  0.250  0.500-   5 2.57   6 2.57   7 2.57   8 2.57  18 2.57  20 2.57  22 2.57  24 2.57
                            25 2.57  26 2.57  29 2.57  30 2.57
  15  0.250  0.750  0.500-   5 2.57   6 2.57   7 2.57   8 2.57  17 2.57  19 2.57  21 2.57  23 2.57
                            27 2.57  28 2.57  31 2.57  32 2.57
  16  0.750  0.750  0.500-   5 2.57   6 2.57   7 2.57   8 2.57  18 2.57  20 2.57  22 2.57  24 2.57
                            27 2.57  28 2.57  31 2.57  32 2.57
  17  0.250  0.000  0.250-   1 2.50   2 2.57   5 2.57   6 2.57   9 2.57  11 2.57  13 2.57  15 2.57
                            25 2.57  26 2.57  27 2.57  28 2.57
  18  0.750  0.000  0.250-   2 2.57   5 2.57   6 2.57  10 2.57  12 2.57  14 2.57  16 2.57  25 2.57
                            26 2.57  27 2.57  28 2.57   1 2.65
  19  0.250  0.500  0.250-   3 2.57   4 2.57   7 2.57   8 2.57   9 2.57  11 2.57  13 2.57  15 2.57
                            25 2.57  26 2.57  27 2.57  28 2.57
  20  0.750  0.500  0.250-   3 2.57   4 2.57   7 2.57   8 2.57  10 2.57  12 2.57  14 2.57  16 2.57
                            25 2.57  26 2.57  27 2.57  28 2.57
  21  0.250  0.000  0.750-   1 2.50   2 2.57   5 2.57   6 2.57   9 2.57  11 2.57  13 2.57  15 2.57
                            29 2.57  30 2.57  31 2.57  32 2.57
  22  0.750  0.000  0.750-   2 2.57   5 2.57   6 2.57  10 2.57  12 2.57  14 2.57  16 2.57  29 2.57
                            30 2.57  31 2.57  32 2.57   1 2.65
  23  0.250  0.500  0.750-   3 2.57   4 2.57   7 2.57   8 2.57   9 2.57  11 2.57  13 2.57  15 2.57
                            29 2.57  30 2.57  31 2.57  32 2.57
  24  0.750  0.500  0.750-   3 2.57   4 2.57   7 2.57   8 2.57  10 2.57  12 2.57  14 2.57  16 2.57
                            29 2.57  30 2.57  31 2.57  32 2.57
  25  0.000  0.250  0.250-   3 2.57   5 2.57   7 2.57   9 2.57  10 2.57  13 2.57  14 2.57  17 2.57
                            18 2.57  19 2.57  20 2.57   1 2.57
  26  0.500  0.250  0.250-   2 2.57   4 2.57   6 2.57   8 2.57   9 2.57  10 2.57  13 2.57  14 2.57
                            17 2.57  18 2.57  19 2.57  20 2.57
  27  0.000  0.750  0.250-   3 2.57   5 2.57   7 2.57  11 2.57  12 2.57  15 2.57  16 2.57  17 2.57
                            18 2.57  19 2.57  20 2.57   1 2.57
  28  0.500  0.750  0.250-   2 2.57   4 2.57   6 2.57   8 2.57  11 2.57  12 2.57  15 2.57  16 2.57
                            17 2.57  18 2.57  19 2.57  20 2.57
  29  0.000  0.250  0.750-   3 2.57   5 2.57   7 2.57   9 2.57  10 2.57  13 2.57  14 2.57  21 2.57
                            22 2.57  23 2.57  24 2.57   1 2.57
  30  0.500  0.250  0.750-   2 2.57   4 2.57   6 2.57   8 2.57   9 2.57  10 2.57  13 2.57  14 2.57
                            21 2.57  22 2.57  23 2.57  24 2.57
  31  0.000  0.750  0.750-   3 2.57   5 2.57   7 2.57  11 2.57  12 2.57  15 2.57  16 2.57  21 2.57
                            22 2.57  23 2.57  24 2.57   1 2.57
  32  0.500  0.750  0.750-   2 2.57   4 2.57   6 2.57   8 2.57  11 2.57  12 2.57  15 2.57  16 2.57
                            21 2.57  22 2.57  23 2.57  24 2.57
 
  LATTYP: Found a simple cubic cell.
 ALAT       =     7.2728316235
  
  Lattice vectors:
  
 A1 = (   7.2728316235,   0.0000000000,   0.0000000000)
 A2 = (   0.0000000000,   7.2728316235,   0.0000000000)
 A3 = (   0.0000000000,   0.0000000000,   7.2728316235)
 Subroutine PRICEL returns:
 Original cell was already a primitive cell.
 

Analysis of symmetry for initial positions (statically):

 Routine SETGRP: Setting up the symmetry group for a 
 simple cubic supercell.


 Subroutine GETGRP returns: Found  8 space group operations
 (whereof  8 operations were pure point group operations)
 out of a pool of 48 trial point group operations.


The static configuration has the point symmetry C_4v.

Analysis of symmetry for dynamics (positions and initial velocities):

 Subroutine DYNSYM returns: Found  8 space group operations
 (whereof  8 operations were pure point group operations)
 out of a pool of  8 trial space group operations
 (whereof  8 operations were pure point group operations)
 and found also     1 'primitive' translations


The dynamic configuration has the point symmetry C_4v.
 
 
 KPOINTS: Automatic mesh                          

Automatic generation of k-mesh.
 generate k-points for:   7   7   7
 
 Subroutine IBZKPT returns following result:
 ===========================================
 
 Found     40 irreducible k-points:
 
 Following reciprocal coordinates:
            Coordinates               Weight
  0.000000  0.000000  0.000000      1.000000
  0.142857  0.000000  0.000000      2.000000
  0.285714  0.000000  0.000000      2.000000
  0.428571  0.000000  0.000000      2.000000
  0.000000  0.142857  0.000000      4.000000
  0.142857  0.142857  0.000000      8.000000
  0.285714  0.142857  0.000000      8.000000
  0.428571  0.142857  0.000000      8.000000
  0.000000  0.285714  0.000000      4.000000
  0.142857  0.285714  0.000000      8.000000
  0.285714  0.285714  0.000000      8.000000
  0.428571  0.285714  0.000000      8.000000
  0.000000  0.428571  0.000000      4.000000
  0.142857  0.428571  0.000000      8.000000
  0.285714  0.428571  0.000000      8.000000
  0.428571  0.428571  0.000000      8.000000
  0.000000  0.142857  0.142857      4.000000
  0.142857  0.142857  0.142857      8.000000
  0.285714  0.142857  0.142857      8.000000
  0.428571  0.142857  0.142857      8.000000
  0.000000  0.285714  0.142857      8.000000
  0.142857  0.285714  0.142857     16.000000
  0.285714  0.285714  0.142857     16.000000
  0.428571  0.285714  0.142857     16.000000
  0.000000  0.428571  0.142857      8.000000
  0.142857  0.428571  0.142857     16.000000
  0.285714  0.428571  0.142857     16.000000
  0.428571  0.428571  0.142857     16.000000
  0.000000  0.285714  0.285714      4.000000
  0.142857  0.285714  0.285714      8.000000
  0.285714  0.285714  0.285714      8.000000
  0.428571  0.285714  0.285714      8.000000
  0.000000  0.428571  0.285714      8.000000
  0.142857  0.428571  0.285714     16.000000
  0.285714  0.428571  0.285714     16.000000
  0.428571  0.428571  0.285714     16.000000
  0.000000  0.428571  0.428571      4.000000
  0.142857  0.428571  0.428571      8.000000
  0.285714  0.428571  0.428571      8.000000
  0.428571  0.428571  0.428571      8.000000
 
 Following cartesian coordinates:
            Coordinates               Weight
  0.000000  0.000000  0.000000      1.000000
  0.019643  0.000000  0.000000      2.000000
  0.039285  0.000000  0.000000      2.000000
  0.058928  0.000000  0.000000      2.000000
  0.000000  0.019643  0.000000      4.000000
  0.019643  0.019643  0.000000      8.000000
  0.039285  0.019643  0.000000      8.000000
  0.058928  0.019643  0.000000      8.000000
  0.000000  0.039285  0.000000      4.000000
  0.019643  0.039285  0.000000      8.000000
  0.039285  0.039285  0.000000      8.000000
  0.058928  0.039285  0.000000      8.000000
  0.000000  0.058928  0.000000      4.000000
  0.019643  0.058928  0.000000      8.000000
  0.039285  0.058928  0.000000      8.000000
  0.058928  0.058928  0.000000      8.000000
  0.000000  0.019643  0.019643      4.000000
  0.019643  0.019643  0.019643      8.000000
  0.039285  0.019643  0.019643      8.000000
  0.058928  0.019643  0.019643      8.000000
  0.000000  0.039285  0.019643      8.000000
  0.019643  0.039285  0.019643     16.000000
  0.039285  0.039285  0.019643     16.000000
  0.058928  0.039285  0.019643     16.000000
  0.000000  0.058928  0.019643      8.000000
  0.019643  0.058928  0.019643     16.000000
  0.039285  0.058928  0.019643     16.000000
  0.058928  0.058928  0.019643     16.000000
  0.000000  0.039285  0.039285      4.000000
  0.019643  0.039285  0.039285      8.000000
  0.039285  0.039285  0.039285      8.000000
  0.058928  0.039285  0.039285      8.000000
  0.000000  0.058928  0.039285      8.000000
  0.019643  0.058928  0.039285     16.000000
  0.039285  0.058928  0.039285     16.000000
  0.058928  0.058928  0.039285     16.000000
  0.000000  0.058928  0.058928      4.000000
  0.019643  0.058928  0.058928      8.000000
  0.039285  0.058928  0.058928      8.000000
  0.058928  0.058928  0.058928      8.000000
 


--------------------------------------------------------------------------------------------------------




 Dimension of arrays:
   k-Points           NKPTS =     40   number of bands    NBANDS=    216
   number of dos      NEDOS =    301   number of ions     NIONS =     32
   non local maximal  LDIM  =      6   non local SUM 2l+1 LMDIM =     18
   total plane-waves  NPLWV = 157464
   max r-space proj   IRMAX =      1   max aug-charges    IRDMAX= 115115
   dimension x,y,z NGX =    54 NGY =   54 NGZ =   54
   dimension x,y,z NGXF=   108 NGYF=  108 NGZF=  108
   support grid    NGXF=   216 NGYF=  216 NGZF=  216
   ions per type =              32
 NGX,Y,Z   is equivalent  to a cutoff of  12.34, 12.34, 12.34 a.u.
 NGXF,Y,Z  is equivalent  to a cutoff of  24.69, 24.69, 24.69 a.u.


 I would recommend the setting:
   dimension x,y,z NGX =    53 NGY =   53 NGZ =   53
 SYSTEM =  unknown system                          
 POSCAR =  Cu                                      

 Startparameter for this run:
   NWRITE =      2    write-flag & timer
   PREC   = accura    medium, high low
   ISTART =      0    job   : 0-new  1-cont  2-samecut
   ICHARG =      2    charge: 1-file 2-atom 10-const
   ISPIN  =      1    spin polarized calculation?
   LNONCOLLINEAR =      F non collinear calculations
   LSORBIT =      F    spin-orbit coupling
   INIWAV =      1    electr: 0-lowe 1-rand  2-diag
   LASPH  =      F    aspherical Exc in radial PAW
   METAGGA=      F    non-selfconsistent MetaGGA calc.

 Electronic Relaxation 1
   ENCUT  =  500.0 eV  36.75 Ry    6.06 a.u.  13.26 13.26 13.26*2*pi/ulx,y,z
   ENINI  =  500.0     initial cutoff
   ENAUG  =  516.5 eV  augmentation charge cutoff
   NELM   =     60;   NELMIN=  2; NELMDL=  0     # of ELM steps 
   EDIFF  = 0.1E-07   stopping-criterion for ELM
   LREAL  =      F    real-space projection
   LCOMPAT=      F    compatible to vasp.4.4
   LREAL_COMPAT= F    compatible to vasp.4.5.1-3
   GGA_COMPAT  = T    GGA compatible to vasp.4.4-vasp.4.6
   LMAXPAW     = -100 max onsite density
   LMAXMIX     =    2 max onsite mixed and CHGCAR
   VOSKOWN=      0    Vosko Wilk Nusair interpolation
   ROPT   =    0.00000
 Ionic relaxation
   EDIFFG = 0.1E-06   stopping-criterion for IOM
   NSW    =      0    number of steps for IOM
   NBLOCK =      1;   KBLOCK =      1    inner block; outer block 
   IBRION =     -1    ionic relax: 0-MD 1-quasi-New 2-CG
   NFREE  =      0    steps in history (QN), initial steepest desc. (CG)
   ISIF   =      2    stress and relaxation
   IWAVPR =     10    prediction:  0-non 1-charg 2-wave 3-comb
   ISYM   =      2    0-nonsym 1-usesym 2-fastsym
   LCORR  =      T    Harris-Foulkes like correction to forces

   POTIM  =   0.50    time-step for ionic-motion
   TEIN   =    0.0    initial temperature
   TEBEG  =    0.0;   TEEND  =   0.0 temperature during run
   SMASS  =  -3.00    Nose mass-parameter (am)
   estimated Nose-frequenzy (Omega)   =  0.10E-29 period in steps =****** mass=  -0.121E-26a.u.
   NPACO  =    256;   APACO  = 16.0  distance and # of slots for P.C.
   PSTRESS=    0.0 pullay stress

  Mass of Ions in am
   POMASS =  63.55
  Ionic Valenz
   ZVAL   =  11.00
  Atomic Wigner-Seitz radii
   RWIGS  =  -1.00
   NELECT =     352.0000    total number of electrons
   NUPDOWN=      -1.0000    fix difference up-down

 DOS related values:
   EMIN   =  10.00;   EMAX   =-10.00  energy-range for DOS
   ISMEAR =     0;   SIGMA  =   0.01  broadening in eV -4-tet -1-fermi 0-gaus

 Electronic relaxation 2 (details)
   IALGO  =     38    algorithm
   LDIAG  =      T    sub-space diagonalisation
   IMIX   =      4    mixing-type and parameters
     AMIX     =   0.40;   BMIX     =  1.00
     AMIX_MAG =   1.60;   BMIX_MAG =  1.00
     AMIN     =   0.10
     WC   =   100.;   INIMIX=   1;  MIXPRE=   1

 Intra band minimization:
   WEIMIN = 0.0000     energy-eigenvalue tresh-hold
   EBREAK =  0.12E-10  absolut break condition
   DEPER  =   0.30     relativ break condition  

   TIME   =   0.10     timestep for ELM

  volume/ion in A,a.u.               =      12.02        81.13
  Fermi-wavevector in a.u.,eV,Ry     =   1.589347 34.368661  2.526025

 Second variation
   LSECVAR=     F    do a second variation
 
 Write flags
   LWAVE  =      F    write WAVECAR
   LCHARG =      F    write CHGCAR
   LVTOT  =      F    write LOCPOT, local potential
   LELF   =      F    write electronic localiz. function (ELF)
   LORBIT =      0    0 simple, 1 ext, 2 COOP (PROOUT)


 Dipole corrections
   IDIPOL =      0    1-x, 2-y, 3-z
   LDIPOL =      F    correct potential



--------------------------------------------------------------------------------------------------------


 Static calculation
 charge density will be updated during run
 non-spin polarized calculation
 Variant of blocked Davidson
 Davidson routine will perform the subspace rotation
 performe sub-space diagonalisation
    after iterative eigenvector-optimisation
 modified Broyden-mixing scheme, WC =      100.0
 initial mixing is a Kerker type mixing with AMIX =  0.4000 and BMIX =      1.0000
 Hartree-type preconditioning will be used
 using additional bands           40
 reciprocal scheme for non local part
 use partial core corrections
 calculate Harris-corrections to forces 
   (improved forces if not selfconsistent)
 use gradient corrections 
 use of overlap-Matrix (Vanderbilt PP)
 Gauss-broadening in eV      SIGMA  =   0.01


--------------------------------------------------------------------------------------------------------


  energy-cutoff  :      500.00
  volume of cell :      384.69
      direct lattice vectors                 reciprocal lattice vectors
     7.272831623  0.000000000  0.000000000     0.137498027  0.000000000  0.000000000
     0.000000000  7.272831623  0.000000000     0.000000000  0.137498027  0.000000000
     0.000000000  0.000000000  7.272831623     0.000000000  0.000000000  0.137498027

  length of vectors
     7.272831623  7.272831623  7.272831623     0.137498027  0.137498027  0.137498027


 
 k-points in units of 2pi/SCALE and weight: Automatic mesh                          
   0.00000000  0.00000000  0.00000000       0.003
   0.01964258  0.00000000  0.00000000       0.006
   0.03928515  0.00000000  0.00000000       0.006
   0.05892773  0.00000000  0.00000000       0.006
   0.00000000  0.01964258  0.00000000       0.012
   0.01964258  0.01964258  0.00000000       0.023
   0.03928515  0.01964258  0.00000000       0.023
   0.05892773  0.01964258  0.00000000       0.023
   0.00000000  0.03928515  0.00000000       0.012
   0.01964258  0.03928515  0.00000000       0.023
   0.03928515  0.03928515  0.00000000       0.023
   0.05892773  0.03928515  0.00000000       0.023
   0.00000000  0.05892773  0.00000000       0.012
   0.01964258  0.05892773  0.00000000       0.023
   0.03928515  0.05892773  0.00000000       0.023
   0.05892773  0.05892773  0.00000000       0.023
   0.00000000  0.01964258  0.01964258       0.012
   0.01964258  0.01964258  0.01964258       0.023
   0.03928515  0.01964258  0.01964258       0.023
   0.05892773  0.01964258  0.01964258       0.023
   0.00000000  0.03928515  0.01964258       0.023
   0.01964258  0.03928515  0.01964258       0.047
   0.03928515  0.03928515  0.01964258       0.047
   0.05892773  0.03928515  0.01964258       0.047
   0.00000000  0.05892773  0.01964258       0.023
   0.01964258  0.05892773  0.01964258       0.047
   0.03928515  0.05892773  0.01964258       0.047
   0.05892773  0.05892773  0.01964258       0.047
   0.00000000  0.03928515  0.03928515       0.012
   0.01964258  0.03928515  0.03928515       0.023
   0.03928515  0.03928515  0.03928515       0.023
   0.05892773  0.03928515  0.03928515       0.023
   0.00000000  0.05892773  0.03928515       0.023
   0.01964258  0.05892773  0.03928515       0.047
   0.03928515  0.05892773  0.03928515       0.047
   0.05892773  0.05892773  0.03928515       0.047
   0.00000000  0.05892773  0.05892773       0.012
   0.01964258  0.05892773  0.05892773       0.023
   0.03928515  0.05892773  0.05892773       0.023
   0.05892773  0.05892773  0.05892773       0.023
 
 k-points in reciprocal lattice and weights: Automatic mesh                          
   0.00000000  0.00000000  0.00000000       0.003
   0.14285714  0.00000000  0.00000000       0.006
   0.28571429  0.00000000  0.00000000       0.006
   0.42857143  0.00000000  0.00000000       0.006
   0.00000000  0.14285714  0.00000000       0.012
   0.14285714  0.14285714  0.00000000       0.023
   0.28571429  0.14285714  0.00000000       0.023
   0.42857143  0.14285714  0.00000000       0.023
   0.00000000  0.28571429  0.00000000       0.012
   0.14285714  0.28571429  0.00000000       0.023
   0.28571429  0.28571429  0.00000000       0.023
   0.42857143  0.28571429  0.00000000       0.023
   0.00000000  0.42857143  0.00000000       0.012
   0.14285714  0.42857143  0.00000000       0.023
   0.28571429  0.42857143  0.00000000       0.023
   0.42857143  0.42857143  0.00000000       0.023
   0.00000000  0.14285714  0.14285714       0.012
   0.14285714  0.14285714  0.14285714       0.023
   0.28571429  0.14285714  0.14285714       0.023
   0.42857143  0.14285714  0.14285714       0.023
   0.00000000  0.28571429  0.14285714       0.023
   0.14285714  0.28571429  0.14285714       0.047
   0.28571429  0.28571429  0.14285714       0.047
   0.42857143  0.28571429  0.14285714       0.047
   0.00000000  0.42857143  0.14285714       0.023
   0.14285714  0.42857143  0.14285714       0.047
   0.28571429  0.42857143  0.14285714       0.047
   0.42857143  0.42857143  0.14285714       0.047
   0.00000000  0.28571429  0.28571429       0.012
   0.14285714  0.28571429  0.28571429       0.023
   0.28571429  0.28571429  0.28571429       0.023
   0.42857143  0.28571429  0.28571429       0.023
   0.00000000  0.42857143  0.28571429       0.023
   0.14285714  0.42857143  0.28571429       0.047
   0.28571429  0.42857143  0.28571429       0.047
   0.42857143  0.42857143  0.28571429       0.047
   0.00000000  0.42857143  0.42857143       0.012
   0.14285714  0.42857143  0.42857143       0.023
   0.28571429  0.42857143  0.42857143       0.023
   0.42857143  0.42857143  0.42857143       0.023
 
 position of ions in fractional coordinates (direct lattice) 
   0.01500000  0.00000000  0.00000000
   0.50000000  0.00000000  0.00000000
   0.00000000  0.50000000  0.00000000
   0.50000000  0.50000000  0.00000000
   0.00000000  0.00000000  0.50000000
   0.50000000  0.00000000  0.50000000
   0.00000000  0.50000000  0.50000000
   0.50000000  0.50000000  0.50000000
   0.25000000  0.25000000  0.00000000
   0.75000000  0.25000000  0.00000000
   0.25000000  0.75000000  0.00000000
   0.75000000  0.75000000  0.00000000
   0.25000000  0.25000000  0.50000000
   0.75000000  0.25000000  0.50000000
   0.25000000  0.75000000  0.50000000
   0.75000000  0.75000000  0.50000000
   0.25000000  0.00000000  0.25000000
   0.75000000  0.00000000  0.25000000
   0.25000000  0.50000000  0.25000000
   0.75000000  0.50000000  0.25000000
   0.25000000  0.00000000  0.75000000
   0.75000000  0.00000000  0.75000000
   0.25000000  0.50000000  0.75000000
   0.75000000  0.50000000  0.75000000
   0.00000000  0.25000000  0.25000000
   0.50000000  0.25000000  0.25000000
   0.00000000  0.75000000  0.25000000
   0.50000000  0.75000000  0.25000000
   0.00000000  0.25000000  0.75000000
   0.50000000  0.25000000  0.75000000
   0.00000000  0.75000000  0.75000000
   0.50000000  0.75000000  0.75000000
 
 position of ions in cartesian coordinates  (Angst):
   0.10909247  0.00000000  0.00000000
   3.63641581  0.00000000  0.00000000
   0.00000000  3.63641581  0.00000000
   3.63641581  3.63641581  0.00000000
   0.00000000  0.00000000  3.63641581
   3.63641581  0.00000000  3.63641581
   0.00000000  3.63641581  3.63641581
   3.63641581  3.63641581  3.63641581
   1.81820791  1.81820791  0.00000000
   5.45462372  1.81820791  0.00000000
   1.81820791  5.45462372  0.00000000
   5.45462372  5.45462372  0.00000000
   1.81820791  1.81820791  3.63641581
   5.45462372  1.81820791  3.63641581
   1.81820791  5.45462372  3.63641581
   5.45462372  5.45462372  3.63641581
   1.81820791  0.00000000  1.81820791
   5.45462372  0.00000000  1.81820791
   1.81820791  3.63641581  1.81820791
   5.45462372  3.63641581  1.81820791
   1.81820791  0.00000000  5.45462372
   5.45462372  0.00000000  5.45462372
   1.81820791  3.63641581  5.45462372
   5.45462372  3.63641581  5.45462372
   0.00000000  1.81820791  1.81820791
   3.63641581  1.81820791  1.81820791
   0.00000000  5.45462372  1.81820791
   3.63641581  5.45462372  1.81820791
   0.00000000  1.81820791  5.45462372
   3.63641581  1.81820791  5.45462372
   0.00000000  5.45462372  5.45462372
   3.63641581  5.45462372  5.45462372
 


--------------------------------------------------------------------------------------------------------


 k-point  1 :  0.00000.00000.0000  plane waves:   9771
 k-point  2 :  0.14290.00000.0000  plane waves:   9759
 k-point  3 :  0.28570.00000.0000  plane waves:   9758
 k-point  4 :  0.42860.00000.0000  plane waves:   9782
 k-point  5 :  0.00000.14290.0000  plane waves:   9759
 k-point  6 :  0.14290.14290.0000  plane waves:   9761
 k-point  7 :  0.28570.14290.0000  plane waves:   9762
 k-point  8 :  0.42860.14290.0000  plane waves:   9784
 k-point  9 :  0.00000.28570.0000  plane waves:   9758
 k-point 10 :  0.14290.28570.0000  plane waves:   9762
 k-point 11 :  0.28570.28570.0000  plane waves:   9731
 k-point 12 :  0.42860.28570.0000  plane waves:   9769
 k-point 13 :  0.00000.42860.0000  plane waves:   9782
 k-point 14 :  0.14290.42860.0000  plane waves:   9784
 k-point 15 :  0.28570.42860.0000  plane waves:   9769
 k-point 16 :  0.42860.42860.0000  plane waves:   9748
 k-point 17 :  0.00000.14290.1429  plane waves:   9761
 k-point 18 :  0.14290.14290.1429  plane waves:   9777
 k-point 19 :  0.28570.14290.1429  plane waves:   9765
 k-point 20 :  0.42860.14290.1429  plane waves:   9767
 k-point 21 :  0.00000.28570.1429  plane waves:   9762
 k-point 22 :  0.14290.28570.1429  plane waves:   9765
 k-point 23 :  0.28570.28570.1429  plane waves:   9760
 k-point 24 :  0.42860.28570.1429  plane waves:   9773
 k-point 25 :  0.00000.42860.1429  plane waves:   9784
 k-point 26 :  0.14290.42860.1429  plane waves:   9767
 k-point 27 :  0.28570.42860.1429  plane waves:   9773
 k-point 28 :  0.42860.42860.1429  plane waves:   9767
 k-point 29 :  0.00000.28570.2857  plane waves:   9731
 k-point 30 :  0.14290.28570.2857  plane waves:   9760
 k-point 31 :  0.28570.28570.2857  plane waves:   9762
 k-point 32 :  0.42860.28570.2857  plane waves:   9775
 k-point 33 :  0.00000.42860.2857  plane waves:   9769
 k-point 34 :  0.14290.42860.2857  plane waves:   9773
 k-point 35 :  0.28570.42860.2857  plane waves:   9775
 k-point 36 :  0.42860.42860.2857  plane waves:   9759
 k-point 37 :  0.00000.42860.4286  plane waves:   9748
 k-point 38 :  0.14290.42860.4286  plane waves:   9767
 k-point 39 :  0.28570.42860.4286  plane waves:   9759
 k-point 40 :  0.42860.42860.4286  plane waves:   9787

 maximum and minimum number of plane-waves per node :   9787  9731

 maximum number of plane-waves:   9787
 maximal index in each direction: 
   IXMAX= 13   IYMAX= 13   IZMAX= 13
   IXMIN=-13   IYMIN=-13   IZMIN=-13

 NGX is ok and might be reduce to  54
 NGY is ok and might be reduce to  54
 NGZ is ok and might be reduce to  54

 parallel 3dFFT wavefunction:
    minimum data exchange during FFTs selected (reduces bandwidth)
 parallel 3dFFT charge:
    minimum data exchange during FFTs selected (reduces bandwidth)

 For storing wavefunctions 1350.00 MBYTES are necessary
 For predicting wavefunctions   73.63 MBYTES are necessary
Broyden mixing: mesh for mixing (old mesh)
   NGX = 27   NGY = 27   NGZ = 27
  (NGX  =108   NGY  =108   NGZ  =108)
 gives a total of  19683 points
 initial charge density was supplied:
 charge density of overlapping atoms calculated
 number of electron  352.0000000 magnetization 
 keeping initial charge density in first step


--------------------------------------------------------------------------------------------------------


 Maximum index for augmentation-charges        14000 (set IRDMAX)


--------------------------------------------------------------------------------------------------------


 First call to EWALD:  gamma=   0.244
 Maximum number of real-space cells 3x 3x 3
 Maximum number of reciprocal cells 3x 3x 3

    FEWALD:  VPU time    0.01: CPU time    0.01


----------------------------------------- Iteration    1(   1)  ---------------------------------------


    POTLOK:  VPU time    0.33: CPU time    0.34
    SETDIJ:  VPU time    0.77: CPU time    0.77
    EDDAV :  VPU time  241.76: CPU time  242.64
    DOS   :  VPU time    0.00: CPU time   -0.00
    ------------------------------------------
      LOOP:  VPU time  242.92: CPU time  243.79

 eigenvalue-minimisations  : 17280
 total energy-change (2. order) : 0.3257453E+04  (-0.1451367E+05)
 number of electron  352.0000000 magnetization 
 augmentation part   352.0000000 magnetization 

 Free energy of the ion-electron system (eV)
  ---------------------------------------------------
  alpha Z        PSCENC =      3400.89143748
  Ewald energy   TEWEN  =    -35145.60365850
  -1/2 Hartree   DENC   =    -10551.05638134
  -V(xc)+E(xc)   XCENC  =      1403.31048789
  PAW double counting   =     34625.67335558   -39234.46421604
  entropy T*S    EENTRO =        -0.00020313
  eigenvalues    EBANDS =      4247.44396721
  atomic energy  EATOM  =     44511.25856501
  ---------------------------------------------------
  free energy    TOTEN  =      3257.45335415 eV

  energy without entropy =     3257.45355729  energy(sigma->0) =     3257.45345572


--------------------------------------------------------------------------------------------------------




----------------------------------------- Iteration    1(   2)  ---------------------------------------


    EDDAV :  VPU time  244.56: CPU time  245.35
    DOS   :  VPU time    0.00: CPU time   -0.00
    ------------------------------------------
      LOOP:  VPU time  244.61: CPU time  245.42

 eigenvalue-minimisations  : 17280
 total energy-change (2. order) :-0.2944397E+04  (-0.2824157E+04)
 number of electron  352.0000000 magnetization 
 augmentation part   352.0000000 magnetization 

 Free energy of the ion-electron system (eV)
  ---------------------------------------------------
  alpha Z        PSCENC =      3400.89143748
  Ewald energy   TEWEN  =    -35145.60365850
  -1/2 Hartree   DENC   =    -10551.05638134
  -V(xc)+E(xc)   XCENC  =      1403.31048789
  PAW double counting   =     34625.67335558   -39234.46421604
  entropy T*S    EENTRO =        -0.00083622
  eigenvalues    EBANDS =      1303.04725971
  atomic energy  EATOM  =     44511.25856501
  ---------------------------------------------------
  free energy    TOTEN  =       313.05601357 eV

  energy without entropy =      313.05684979  energy(sigma->0) =      313.05643168


--------------------------------------------------------------------------------------------------------




----------------------------------------- Iteration    1(   3)  ---------------------------------------


    EDDAV :  VPU time  244.63: CPU time  245.42
    DOS   :  VPU time    0.00: CPU time   -0.00
    ------------------------------------------
      LOOP:  VPU time  244.69: CPU time  245.48

 eigenvalue-minimisations  : 17280
 total energy-change (2. order) :-0.4358324E+03  (-0.3933586E+03)
 number of electron  352.0000000 magnetization 
 augmentation part   352.0000000 magnetization 

 Free energy of the ion-electron system (eV)
  ---------------------------------------------------
  alpha Z        PSCENC =      3400.89143748
  Ewald energy   TEWEN  =    -35145.60365850
  -1/2 Hartree   DENC   =    -10551.05638134
  -V(xc)+E(xc)   XCENC  =      1403.31048789
  PAW double counting   =     34625.67335558   -39234.46421604
  entropy T*S    EENTRO =        -0.00146563
  eigenvalues    EBANDS =       867.21552386
  atomic energy  EATOM  =     44511.25856501
  ---------------------------------------------------
  free energy    TOTEN  =      -122.77635169 eV

  energy without entropy =     -122.77488606  energy(sigma->0) =     -122.77561887


--------------------------------------------------------------------------------------------------------




----------------------------------------- Iteration    1(   4)  ---------------------------------------


    EDDAV :  VPU time  256.28: CPU time  256.94
    DOS   :  VPU time   -0.00: CPU time   -0.00
    ------------------------------------------
      LOOP:  VPU time  256.33: CPU time  257.00

 eigenvalue-minimisations  : 18408
 total energy-change (2. order) :-0.2368518E+02  (-0.2318243E+02)
 number of electron  352.0000000 magnetization 
 augmentation part   352.0000000 magnetization 

 Free energy of the ion-electron system (eV)
  ---------------------------------------------------
  alpha Z        PSCENC =      3400.89143748
  Ewald energy   TEWEN  =    -35145.60365850
  -1/2 Hartree   DENC   =    -10551.05638134
  -V(xc)+E(xc)   XCENC  =      1403.31048789
  PAW double counting   =     34625.67335558   -39234.46421604
  entropy T*S    EENTRO =        -0.00091910
  eigenvalues    EBANDS =       843.52979876
  atomic energy  EATOM  =     44511.25856501
  ---------------------------------------------------
  free energy    TOTEN  =      -146.46153027 eV

  energy without entropy =     -146.46061117  energy(sigma->0) =     -146.46107072


--------------------------------------------------------------------------------------------------------




----------------------------------------- Iteration    1(   5)  ---------------------------------------


    EDDAV :  VPU time  256.65: CPU time  256.90
    DOS   :  VPU time    0.00: CPU time   -0.00
    CHARGE:  VPU time    9.98: CPU time    9.99
    MIXING:  VPU time    0.01: CPU time    0.01
    ------------------------------------------
      LOOP:  VPU time  266.69: CPU time  266.98

 eigenvalue-minimisations  : 18432
 total energy-change (2. order) :-0.1894185E+00  (-0.1891240E+00)
 number of electron  351.9999998 magnetization 
 augmentation part   214.2823873 magnetization 

 Broyden mixing:
  rms(total) = 0.39373E+01    rms(broyden)= 0.39372E+01
  rms(prec ) = 0.58161E+01
  weight for this iteration     100.00

 Free energy of the ion-electron system (eV)
  ---------------------------------------------------
  alpha Z        PSCENC =      3400.89143748
  Ewald energy   TEWEN  =    -35145.60365850
  -1/2 Hartree   DENC   =    -10551.05638134
  -V(xc)+E(xc)   XCENC  =      1403.31048789
  PAW double counting   =     34625.67335558   -39234.46421604
  entropy T*S    EENTRO =        -0.00091972
  eigenvalues    EBANDS =       843.34038091
  atomic energy  EATOM  =     44511.25856501
  ---------------------------------------------------
  free energy    TOTEN  =      -146.65094873 eV

  energy without entropy =     -146.65002901  energy(sigma->0) =     -146.65048887


--------------------------------------------------------------------------------------------------------




----------------------------------------- Iteration    1(   6)  ---------------------------------------


    POTLOK:  VPU time    0.32: CPU time    0.33
    SETDIJ:  VPU time    0.73: CPU time    0.74
    EDDAV :  VPU time  253.51: CPU time  256.15
    DOS   :  VPU time   -0.00: CPU time   -0.00
    CHARGE:  VPU time    9.69: CPU time    9.78
    MIXING:  VPU time    0.01: CPU time    0.01
    ------------------------------------------
      LOOP:  VPU time  264.32: CPU time  267.07

 eigenvalue-minimisations  : 18592
 total energy-change (2. order) : 0.1749197E+02  (-0.2638826E+02)
 number of electron  351.9999998 magnetization 
 augmentation part   238.5998641 magnetization 

 Broyden mixing:
  rms(total) = 0.17749E+01    rms(broyden)= 0.17747E+01
  rms(prec ) = 0.24644E+01
  weight for this iteration     100.00

 eigenvalues of (default mixing * dielectric matrix)
  average eigenvalue GAMMA=   0.6912
  0.6912

 Free energy of the ion-electron system (eV)
  ---------------------------------------------------
  alpha Z        PSCENC =      3400.89143748
  Ewald energy   TEWEN  =    -35145.60365850
  -1/2 Hartree   DENC   =     -9756.05179734
  -V(xc)+E(xc)   XCENC  =      1363.06061455
  PAW double counting   =     33843.47942229   -38194.22319476
  entropy T*S    EENTRO =        -0.00057559
  eigenvalues    EBANDS =      -151.96979551
  atomic energy  EATOM  =     44511.25856501
  ---------------------------------------------------
  free energy    TOTEN  =      -129.15898237 eV

  energy without entropy =     -129.15840678  energy(sigma->0) =     -129.15869458


--------------------------------------------------------------------------------------------------------




----------------------------------------- Iteration    1(   7)  ---------------------------------------


    POTLOK:  VPU time    0.36: CPU time    0.41
    SETDIJ:  VPU time    0.73: CPU time    0.73
    EDDAV :  VPU time  263.55: CPU time  263.66
    DOS   :  VPU time    0.00: CPU time   -0.00
    CHARGE:  VPU time    9.70: CPU time    9.70
    MIXING:  VPU time    0.01: CPU time    0.01
    ------------------------------------------
      LOOP:  VPU time  274.41: CPU time  274.58

 eigenvalue-minimisations  : 19264
 total energy-change (2. order) : 0.9830877E+01  (-0.4584675E+01)
 number of electron  351.9999998 magnetization 
 augmentation part   229.8273764 magnetization 

 Broyden mixing:
  rms(total) = 0.29133E+00    rms(broyden)= 0.29127E+00
  rms(prec ) = 0.44392E+00
  weight for this iteration     100.00

 eigenvalues of (default mixing * dielectric matrix)
  average eigenvalue GAMMA=   1.2561
  1.8573  0.6548

 Free energy of the ion-electron system (eV)
  ---------------------------------------------------
  alpha Z        PSCENC =      3400.89143748
  Ewald energy   TEWEN  =    -35145.60365850
  -1/2 Hartree   DENC   =     -9974.41885130
  -V(xc)+E(xc)   XCENC  =      1374.60422813
  PAW double counting   =     34503.22003074   -39043.69670823
  entropy T*S    EENTRO =        -0.00073920
  eigenvalues    EBANDS =       254.41759033
  atomic energy  EATOM  =     44511.25856501
  ---------------------------------------------------
  free energy    TOTEN  =      -119.32810555 eV

  energy without entropy =     -119.32736635  energy(sigma->0) =     -119.32773595


--------------------------------------------------------------------------------------------------------




----------------------------------------- Iteration    1(   8)  ---------------------------------------


    POTLOK:  VPU time    0.42: CPU time    0.45
    SETDIJ:  VPU time    0.73: CPU time    0.73
    EDDAV :  VPU time  265.90: CPU time  265.99
    DOS   :  VPU time    0.00: CPU time   -0.00
    CHARGE:  VPU time    9.51: CPU time    9.51
    MIXING:  VPU time    0.01: CPU time    0.01
    ------------------------------------------
      LOOP:  VPU time  276.63: CPU time  276.75

 eigenvalue-minimisations  : 19520
 total energy-change (2. order) : 0.2300044E+00  (-0.6516162E-01)
 number of electron  351.9999998 magnetization 
 augmentation part   229.5257852 magnetization 

 Broyden mixing:
  rms(total) = 0.22181E+00    rms(broyden)= 0.22181E+00
  rms(prec ) = 0.34085E+00
  weight for this iteration     100.00

 eigenvalues of (default mixing * dielectric matrix)
  average eigenvalue GAMMA=   1.0156
  2.0300  0.6426  0.3743

 Free energy of the ion-electron system (eV)
  ---------------------------------------------------
  alpha Z        PSCENC =      3400.89143748
  Ewald energy   TEWEN  =    -35145.60365850
  -1/2 Hartree   DENC   =     -9900.64541763
  -V(xc)+E(xc)   XCENC  =      1371.25384782
  PAW double counting   =     34917.02217500   -39532.21730335
  entropy T*S    EENTRO =        -0.00068563
  eigenvalues    EBANDS =       258.94293861
  atomic energy  EATOM  =     44511.25856501
  ---------------------------------------------------
  free energy    TOTEN  =      -119.09810120 eV

  energy without entropy =     -119.09741557  energy(sigma->0) =     -119.09775838


--------------------------------------------------------------------------------------------------------




----------------------------------------- Iteration    1(   9)  ---------------------------------------


    POTLOK:  VPU time    0.39: CPU time    0.39
    SETDIJ:  VPU time    0.74: CPU time    0.74
    EDDAV :  VPU time  258.46: CPU time  258.54
    DOS   :  VPU time    0.00: CPU time   -0.00
    CHARGE:  VPU time    9.29: CPU time    9.30
    MIXING:  VPU time    0.01: CPU time    0.01
    ------------------------------------------
      LOOP:  VPU time  268.95: CPU time  269.04

 eigenvalue-minimisations  : 18840
 total energy-change (2. order) : 0.4967060E-01  (-0.1218942E-01)
 number of electron  351.9999998 magnetization 
 augmentation part   229.6102643 magnetization 

 Broyden mixing:
  rms(total) = 0.15599E+00    rms(broyden)= 0.15599E+00
  rms(prec ) = 0.23316E+00
  weight for this iteration     100.00

 eigenvalues of (default mixing * dielectric matrix)
  average eigenvalue GAMMA=   1.1384
  2.5297  0.9713  0.6902  0.3625

 Free energy of the ion-electron system (eV)
  ---------------------------------------------------
  alpha Z        PSCENC =      3400.89143748
  Ewald energy   TEWEN  =    -35145.60365850
  -1/2 Hartree   DENC   =     -9884.22808651
  -V(xc)+E(xc)   XCENC  =      1370.47561900
  PAW double counting   =     34966.84408297   -39589.69161731
  entropy T*S    EENTRO =        -0.00073392
  eigenvalues    EBANDS =       251.00596119
  atomic energy  EATOM  =     44511.25856501
  ---------------------------------------------------
  free energy    TOTEN  =      -119.04843059 eV

  energy without entropy =     -119.04769668  energy(sigma->0) =     -119.04806364


--------------------------------------------------------------------------------------------------------




----------------------------------------- Iteration    1(  10)  ---------------------------------------


    POTLOK:  VPU time    0.33: CPU time    0.33
    SETDIJ:  VPU time    0.74: CPU time    0.74
    EDDAV :  VPU time  264.12: CPU time  264.67
    DOS   :  VPU time    0.00: CPU time   -0.00
    CHARGE:  VPU time    9.57: CPU time    9.58
    MIXING:  VPU time    0.02: CPU time    0.02
    ------------------------------------------
      LOOP:  VPU time  274.83: CPU time  275.39

 eigenvalue-minimisations  : 19384
 total energy-change (2. order) : 0.4924101E-01  (-0.9118581E-02)
 number of electron  351.9999998 magnetization 
 augmentation part   230.0932364 magnetization 

 Broyden mixing:
  rms(total) = 0.18344E-01    rms(broyden)= 0.18341E-01
  rms(prec ) = 0.26943E-01
  weight for this iteration     100.00

 eigenvalues of (default mixing * dielectric matrix)
  average eigenvalue GAMMA=   1.0110
  2.5655  1.0538  0.6805  0.3980  0.3572

 Free energy of the ion-electron system (eV)
  ---------------------------------------------------
  alpha Z        PSCENC =      3400.89143748
  Ewald energy   TEWEN  =    -35145.60365850
  -1/2 Hartree   DENC   =     -9850.82797891
  -V(xc)+E(xc)   XCENC  =      1368.86113369
  PAW double counting   =     35038.01038689   -39668.91965125
  entropy T*S    EENTRO =        -0.00098243
  eigenvalues    EBANDS =       227.33155845
  atomic energy  EATOM  =     44511.25856501
  ---------------------------------------------------
  free energy    TOTEN  =      -118.99918958 eV

  energy without entropy =     -118.99820715  energy(sigma->0) =     -118.99869837


--------------------------------------------------------------------------------------------------------




----------------------------------------- Iteration    1(  11)  ---------------------------------------


    POTLOK:  VPU time    0.56: CPU time    1.14
    SETDIJ:  VPU time    0.73: CPU time    0.73
    EDDAV :  VPU time  260.33: CPU time  260.42
    DOS   :  VPU time    0.00: CPU time   -0.00
    CHARGE:  VPU time    9.66: CPU time    9.66
    MIXING:  VPU time    0.02: CPU time    0.02
    ------------------------------------------
      LOOP:  VPU time  271.35: CPU time  272.04

 eigenvalue-minimisations  : 19008
 total energy-change (2. order) :-0.1851110E-03  (-0.8347126E-03)
 number of electron  351.9999998 magnetization 
 augmentation part   230.1453643 magnetization 

 Broyden mixing:
  rms(total) = 0.73884E-02    rms(broyden)= 0.73875E-02
  rms(prec ) = 0.10706E-01
  weight for this iteration     100.00

 eigenvalues of (default mixing * dielectric matrix)
  average eigenvalue GAMMA=   1.1253
  2.2487  2.2487  0.8912  0.6974  0.3541  0.3118

 Free energy of the ion-electron system (eV)
  ---------------------------------------------------
  alpha Z        PSCENC =      3400.89143748
  Ewald energy   TEWEN  =    -35145.60365850
  -1/2 Hartree   DENC   =     -9848.54769195
  -V(xc)+E(xc)   XCENC  =      1368.74850265
  PAW double counting   =     35044.67169107   -39675.62215236
  entropy T*S    EENTRO =        -0.00100631
  eigenvalues    EBANDS =       225.20493823
  atomic energy  EATOM  =     44511.25856501
  ---------------------------------------------------
  free energy    TOTEN  =      -118.99937469 eV

  energy without entropy =     -118.99836839  energy(sigma->0) =     -118.99887154


--------------------------------------------------------------------------------------------------------




----------------------------------------- Iteration    1(  12)  ---------------------------------------


    POTLOK:  VPU time    0.33: CPU time    0.33
    SETDIJ:  VPU time    0.74: CPU time    0.74
    EDDAV :  VPU time  257.23: CPU time  257.31
    DOS   :  VPU time    0.00: CPU time   -0.00
    CHARGE:  VPU time    9.78: CPU time    9.78
    MIXING:  VPU time    0.01: CPU time    0.01
    ------------------------------------------
      LOOP:  VPU time  268.14: CPU time  268.23

 eigenvalue-minimisations  : 18592
 total energy-change (2. order) :-0.1238630E-03  (-0.1159946E-03)
 number of electron  351.9999998 magnetization 
 augmentation part   230.1661087 magnetization 

 Broyden mixing:
  rms(total) = 0.26972E-02    rms(broyden)= 0.26968E-02
  rms(prec ) = 0.34654E-02
  weight for this iteration     100.00

 eigenvalues of (default mixing * dielectric matrix)
  average eigenvalue GAMMA=   1.1975
  2.5045  2.5045  1.0272  0.9743  0.6918  0.3586  0.3213

 Free energy of the ion-electron system (eV)
  ---------------------------------------------------
  alpha Z        PSCENC =      3400.89143748
  Ewald energy   TEWEN  =    -35145.60365850
  -1/2 Hartree   DENC   =     -9848.75424782
  -V(xc)+E(xc)   XCENC  =      1368.75310995
  PAW double counting   =     35050.55700860   -39680.54810333
  entropy T*S    EENTRO =        -0.00101802
  eigenvalues    EBANDS =       224.44740808
  atomic energy  EATOM  =     44511.25856501
  ---------------------------------------------------
  free energy    TOTEN  =      -118.99949856 eV

  energy without entropy =     -118.99848053  energy(sigma->0) =     -118.99898954


--------------------------------------------------------------------------------------------------------




----------------------------------------- Iteration    1(  13)  ---------------------------------------


    POTLOK:  VPU time    0.89: CPU time    0.89
    SETDIJ:  VPU time    0.73: CPU time    0.73
    EDDAV :  VPU time  249.81: CPU time  249.89
    DOS   :  VPU time    0.00: CPU time   -0.00
    CHARGE:  VPU time    9.34: CPU time    9.34
    MIXING:  VPU time    0.01: CPU time    0.01
    ------------------------------------------
      LOOP:  VPU time  260.83: CPU time  260.92

 eigenvalue-minimisations  : 17960
 total energy-change (2. order) :-0.1625768E-04  (-0.2979289E-04)
 number of electron  351.9999998 magnetization 
 augmentation part   230.1617333 magnetization 

 Broyden mixing:
  rms(total) = 0.20751E-02    rms(broyden)= 0.20750E-02
  rms(prec ) = 0.31563E-02
  weight for this iteration     100.00

 eigenvalues of (default mixing * dielectric matrix)
  average eigenvalue GAMMA=   1.1136
  2.6079  2.4514  1.1688  0.9405  0.6921  0.3215  0.3633  0.3633

 Free energy of the ion-electron system (eV)
  ---------------------------------------------------
  alpha Z        PSCENC =      3400.89143748
  Ewald energy   TEWEN  =    -35145.60365850
  -1/2 Hartree   DENC   =     -9848.59888612
  -V(xc)+E(xc)   XCENC  =      1368.74528507
  PAW double counting   =     35061.56829591   -39691.99592187
  entropy T*S    EENTRO =        -0.00101474
  eigenvalues    EBANDS =       224.73638296
  atomic energy  EATOM  =     44511.25856501
  ---------------------------------------------------
  free energy    TOTEN  =      -118.99951481 eV

  energy without entropy =     -118.99850008  energy(sigma->0) =     -118.99900744


--------------------------------------------------------------------------------------------------------




----------------------------------------- Iteration    1(  14)  ---------------------------------------


    POTLOK:  VPU time    0.36: CPU time    0.43
    SETDIJ:  VPU time    0.73: CPU time    0.74
    EDDAV :  VPU time  250.45: CPU time  252.98
    DOS   :  VPU time    0.00: CPU time   -0.00
    CHARGE:  VPU time    9.13: CPU time    9.22
    MIXING:  VPU time    0.01: CPU time    0.01
    ------------------------------------------
      LOOP:  VPU time  260.74: CPU time  263.45

 eigenvalue-minimisations  : 18296
 total energy-change (2. order) :-0.1265517E-04  (-0.3966791E-05)
 number of electron  351.9999998 magnetization 
 augmentation part   230.1616554 magnetization 

 Broyden mixing:
  rms(total) = 0.13880E-02    rms(broyden)= 0.13880E-02
  rms(prec ) = 0.20625E-02
  weight for this iteration     100.00

 eigenvalues of (default mixing * dielectric matrix)
  average eigenvalue GAMMA=   1.0717
  2.6778  2.3046  1.2587  0.9827  0.6838  0.6838  0.3231  0.3813  0.3497

 Free energy of the ion-electron system (eV)
  ---------------------------------------------------
  alpha Z        PSCENC =      3400.89143748
  Ewald energy   TEWEN  =    -35145.60365850
  -1/2 Hartree   DENC   =     -9848.40865977
  -V(xc)+E(xc)   XCENC  =      1368.73638821
  PAW double counting   =     35063.26446397   -39693.86105703
  entropy T*S    EENTRO =        -0.00101535
  eigenvalues    EBANDS =       224.72400852
  atomic energy  EATOM  =     44511.25856501
  ---------------------------------------------------
  free energy    TOTEN  =      -118.99952747 eV

  energy without entropy =     -118.99851212  energy(sigma->0) =     -118.99901980


--------------------------------------------------------------------------------------------------------




----------------------------------------- Iteration    1(  15)  ---------------------------------------


    POTLOK:  VPU time    0.43: CPU time    0.63
    SETDIJ:  VPU time    0.74: CPU time    0.74
    EDDAV :  VPU time  257.23: CPU time  257.31
    DOS   :  VPU time    0.00: CPU time   -0.00
    CHARGE:  VPU time    9.65: CPU time    9.65
    MIXING:  VPU time    0.02: CPU time    0.02
    ------------------------------------------
      LOOP:  VPU time  268.11: CPU time  268.42

 eigenvalue-minimisations  : 18704
 total energy-change (2. order) :-0.1105536E-04  (-0.7225259E-06)
 number of electron  351.9999998 magnetization 
 augmentation part   230.1619904 magnetization 

 Broyden mixing:
  rms(total) = 0.10744E-02    rms(broyden)= 0.10744E-02
  rms(prec ) = 0.16201E-02
  weight for this iteration     100.00

 eigenvalues of (default mixing * dielectric matrix)
  average eigenvalue GAMMA=   1.0517
  2.6666  2.3405  1.1807  1.0539  0.6893  0.7707  0.7707  0.3206  0.3618  0.3618

 Free energy of the ion-electron system (eV)
  ---------------------------------------------------
  alpha Z        PSCENC =      3400.89143748
  Ewald energy   TEWEN  =    -35145.60365850
  -1/2 Hartree   DENC   =     -9848.27399553
  -V(xc)+E(xc)   XCENC  =      1368.73010764
  PAW double counting   =     35063.71443979   -39694.41095984
  entropy T*S    EENTRO =        -0.00101556
  eigenvalues    EBANDS =       224.69554099
  atomic energy  EATOM  =     44511.25856501
  ---------------------------------------------------
  free energy    TOTEN  =      -118.99953852 eV

  energy without entropy =     -118.99852296  energy(sigma->0) =     -118.99903074


--------------------------------------------------------------------------------------------------------




----------------------------------------- Iteration    1(  16)  ---------------------------------------


    POTLOK:  VPU time    0.33: CPU time    0.33
    SETDIJ:  VPU time    0.74: CPU time    0.74
    EDDAV :  VPU time  260.89: CPU time  261.22
    DOS   :  VPU time    0.00: CPU time   -0.00
    CHARGE:  VPU time    9.82: CPU time    9.83
    MIXING:  VPU time    0.02: CPU time    0.02
    ------------------------------------------
      LOOP:  VPU time  271.84: CPU time  272.21

 eigenvalue-minimisations  : 19080
 total energy-change (2. order) : 0.1096276E-04  (-0.2497111E-06)
 number of electron  351.9999998 magnetization 
 augmentation part   230.1608534 magnetization 

 Broyden mixing:
  rms(total) = 0.51686E-03    rms(broyden)= 0.51685E-03
  rms(prec ) = 0.77644E-03
  weight for this iteration     100.00

 eigenvalues of (default mixing * dielectric matrix)
  average eigenvalue GAMMA=   1.1042
  2.5692  2.5692  1.4622  1.4622  0.9663  0.9663  0.6922  0.3210  0.3597  0.3955
  0.3824

 Free energy of the ion-electron system (eV)
  ---------------------------------------------------
  alpha Z        PSCENC =      3400.89143748
  Ewald energy   TEWEN  =    -35145.60365850
  -1/2 Hartree   DENC   =     -9848.43522328
  -V(xc)+E(xc)   XCENC  =      1368.73758842
  PAW double counting   =     35063.50739029   -39694.11233985
  entropy T*S    EENTRO =        -0.00101500
  eigenvalues    EBANDS =       224.75772788
  atomic energy  EATOM  =     44511.25856501
  ---------------------------------------------------
  free energy    TOTEN  =      -118.99952756 eV

  energy without entropy =     -118.99851256  energy(sigma->0) =     -118.99902006


--------------------------------------------------------------------------------------------------------




----------------------------------------- Iteration    1(  17)  ---------------------------------------


    POTLOK:  VPU time    0.34: CPU time    0.36
    SETDIJ:  VPU time    0.74: CPU time    0.74
    EDDAV :  VPU time  262.88: CPU time  263.41
    DOS   :  VPU time    0.00: CPU time   -0.00
    CHARGE:  VPU time    9.33: CPU time    9.33
    MIXING:  VPU time    0.02: CPU time    0.02
    ------------------------------------------
      LOOP:  VPU time  273.36: CPU time  273.93

 eigenvalue-minimisations  : 19344
 total energy-change (2. order) : 0.1000669E-04  (-0.1837018E-06)
 number of electron  351.9999998 magnetization 
 augmentation part   230.1595916 magnetization 

 Broyden mixing:
  rms(total) = 0.11179E-03    rms(broyden)= 0.11174E-03
  rms(prec ) = 0.15653E-03
  weight for this iteration     100.00

 eigenvalues of (default mixing * dielectric matrix)
  average eigenvalue GAMMA=   1.1427
  2.5949  2.5949  1.8540  1.8540  0.9599  0.9599  0.6952  0.7703  0.3214  0.3928
  0.3575  0.3575

 Free energy of the ion-electron system (eV)
  ---------------------------------------------------
  alpha Z        PSCENC =      3400.89143748
  Ewald energy   TEWEN  =    -35145.60365850
  -1/2 Hartree   DENC   =     -9848.59293408
  -V(xc)+E(xc)   XCENC  =      1368.74490243
  PAW double counting   =     35063.31771815   -39693.83133369
  entropy T*S    EENTRO =        -0.00101445
  eigenvalues    EBANDS =       224.81680010
  atomic energy  EATOM  =     44511.25856501
  ---------------------------------------------------
  free energy    TOTEN  =      -118.99951755 eV

  energy without entropy =     -118.99850310  energy(sigma->0) =     -118.99901033


--------------------------------------------------------------------------------------------------------




----------------------------------------- Iteration    1(  18)  ---------------------------------------


    POTLOK:  VPU time    0.36: CPU time    0.42
    SETDIJ:  VPU time    0.74: CPU time    0.74
    EDDAV :  VPU time  249.34: CPU time  249.43
    DOS   :  VPU time    0.00: CPU time   -0.00
    CHARGE:  VPU time    9.20: CPU time    9.21
    MIXING:  VPU time    0.02: CPU time    0.02
    ------------------------------------------
      LOOP:  VPU time  259.71: CPU time  259.88

 eigenvalue-minimisations  : 18016
 total energy-change (2. order) :-0.1554356E-05  (-0.5125558E-07)
 number of electron  351.9999998 magnetization 
 augmentation part   230.1597245 magnetization 

 Broyden mixing:
  rms(total) = 0.92230E-04    rms(broyden)= 0.92192E-04
  rms(prec ) = 0.12199E-03
  weight for this iteration     100.00

 eigenvalues of (default mixing * dielectric matrix)
  average eigenvalue GAMMA=   1.1154
  2.5982  2.5982  1.9558  1.9558  0.9489  0.9489  0.6881  0.6941  0.6941  0.3213
  0.3816  0.3600  0.3555

 Free energy of the ion-electron system (eV)
  ---------------------------------------------------
  alpha Z        PSCENC =      3400.89143748
  Ewald energy   TEWEN  =    -35145.60365850
  -1/2 Hartree   DENC   =     -9848.57614176
  -V(xc)+E(xc)   XCENC  =      1368.74405243
  PAW double counting   =     35063.40664125   -39693.92360354
  entropy T*S    EENTRO =        -0.00101459
  eigenvalues    EBANDS =       224.80420313
  atomic energy  EATOM  =     44511.25856501
  ---------------------------------------------------
  free energy    TOTEN  =      -118.99951911 eV

  energy without entropy =     -118.99850451  energy(sigma->0) =     -118.99901181


--------------------------------------------------------------------------------------------------------




----------------------------------------- Iteration    1(  19)  ---------------------------------------


    POTLOK:  VPU time    0.32: CPU time    0.32
    SETDIJ:  VPU time    0.74: CPU time    0.74
    EDDAV :  VPU time  246.51: CPU time  246.71
    DOS   :  VPU time    0.00: CPU time   -0.00
    CHARGE:  VPU time    9.54: CPU time    9.54
    MIXING:  VPU time    0.02: CPU time    0.02
    ------------------------------------------
      LOOP:  VPU time  257.18: CPU time  257.39

 eigenvalue-minimisations  : 17704
 total energy-change (2. order) :-0.9402211E-06  (-0.5170465E-08)
 number of electron  351.9999998 magnetization 
 augmentation part   230.1597043 magnetization 

 Broyden mixing:
  rms(total) = 0.56771E-04    rms(broyden)= 0.56713E-04
  rms(prec ) = 0.76919E-04
  weight for this iteration     100.00

 eigenvalues of (default mixing * dielectric matrix)
  average eigenvalue GAMMA=   1.1130
  2.5906  2.5906  2.0101  2.0101  1.0509  1.0509  0.8926  0.8926  0.6924  0.3214
  0.3527  0.3626  0.3853  0.3799

 Free energy of the ion-electron system (eV)
  ---------------------------------------------------
  alpha Z        PSCENC =      3400.89143748
  Ewald energy   TEWEN  =    -35145.60365850
  -1/2 Hartree   DENC   =     -9848.56911213
  -V(xc)+E(xc)   XCENC  =      1368.74372187
  PAW double counting   =     35063.44164129   -39693.96511226
  entropy T*S    EENTRO =        -0.00101458
  eigenvalues    EBANDS =       224.80401177
  atomic energy  EATOM  =     44511.25856501
  ---------------------------------------------------
  free energy    TOTEN  =      -118.99952005 eV

  energy without entropy =     -118.99850547  energy(sigma->0) =     -118.99901276


--------------------------------------------------------------------------------------------------------




----------------------------------------- Iteration    1(  20)  ---------------------------------------


    POTLOK:  VPU time    0.48: CPU time    0.74
    SETDIJ:  VPU time    0.73: CPU time    0.74
    EDDAV :  VPU time  210.98: CPU time  213.10
    DOS   :  VPU time   -0.00: CPU time   -0.00
    CHARGE:  VPU time    9.20: CPU time    9.29
    MIXING:  VPU time    0.02: CPU time    0.02
    ------------------------------------------
      LOOP:  VPU time  221.47: CPU time  223.96

 eigenvalue-minimisations  : 14504
 total energy-change (2. order) :-0.8630159E-06  (-0.3544820E-08)
 number of electron  351.9999998 magnetization 
 augmentation part   230.1596056 magnetization 

 Broyden mixing:
  rms(total) = 0.32564E-04    rms(broyden)= 0.32463E-04
  rms(prec ) = 0.48530E-04
  weight for this iteration     100.00

 eigenvalues of (default mixing * dielectric matrix)
  average eigenvalue GAMMA=   1.1630
  2.6492  2.2253  2.2253  2.0489  2.0489  1.1049  0.9106  0.8785  0.8785  0.6932
  0.3213  0.3888  0.3636  0.3578  0.3508

 Free energy of the ion-electron system (eV)
  ---------------------------------------------------
  alpha Z        PSCENC =      3400.89143748
  Ewald energy   TEWEN  =    -35145.60365850
  -1/2 Hartree   DENC   =     -9848.56493803
  -V(xc)+E(xc)   XCENC  =      1368.74354001
  PAW double counting   =     35063.47841943   -39694.00992189
  entropy T*S    EENTRO =        -0.00101453
  eigenvalues    EBANDS =       224.80805012
  atomic energy  EATOM  =     44511.25856501
  ---------------------------------------------------
  free energy    TOTEN  =      -118.99952091 eV

  energy without entropy =     -118.99850638  energy(sigma->0) =     -118.99901365


--------------------------------------------------------------------------------------------------------




----------------------------------------- Iteration    1(  21)  ---------------------------------------


    POTLOK:  VPU time    0.69: CPU time    0.69
    SETDIJ:  VPU time    0.73: CPU time    0.74
    EDDAV :  VPU time  203.34: CPU time  205.41
    DOS   :  VPU time    0.00: CPU time   -0.00
    CHARGE:  VPU time    9.24: CPU time    9.33
    MIXING:  VPU time    0.02: CPU time    0.02
    ------------------------------------------
      LOOP:  VPU time  214.06: CPU time  216.25

 eigenvalue-minimisations  : 13784
 total energy-change (2. order) :-0.5209949E-06  (-0.3479522E-08)
 number of electron  351.9999998 magnetization 
 augmentation part   230.1593988 magnetization 

 Broyden mixing:
  rms(total) = 0.20671E-04    rms(broyden)= 0.20510E-04
  rms(prec ) = 0.30029E-04
  weight for this iteration     100.00

 eigenvalues of (default mixing * dielectric matrix)
  average eigenvalue GAMMA=   1.1486
  2.6462  2.4867  2.4867  2.2186  1.7739  1.1079  0.9221  0.8793  0.8793  0.6929
  0.5097  0.3214  0.3891  0.3574  0.3574  0.3490

 Free energy of the ion-electron system (eV)
  ---------------------------------------------------
  alpha Z        PSCENC =      3400.89143748
  Ewald energy   TEWEN  =    -35145.60365850
  -1/2 Hartree   DENC   =     -9848.56410430
  -V(xc)+E(xc)   XCENC  =      1368.74352862
  PAW double counting   =     35063.52078159   -39694.06093419
  entropy T*S    EENTRO =        -0.00101444
  eigenvalues    EBANDS =       224.81587730
  atomic energy  EATOM  =     44511.25856501
  ---------------------------------------------------
  free energy    TOTEN  =      -118.99952143 eV

  energy without entropy =     -118.99850699  energy(sigma->0) =     -118.99901421


--------------------------------------------------------------------------------------------------------




----------------------------------------- Iteration    1(  22)  ---------------------------------------


    POTLOK:  VPU time    0.33: CPU time    0.34
    SETDIJ:  VPU time    0.74: CPU time    0.74
    EDDAV :  VPU time  162.58: CPU time  162.91
    DOS   :  VPU time    0.00: CPU time   -0.00
    ------------------------------------------
      LOOP:  VPU time  163.70: CPU time  164.05

 eigenvalue-minimisations  :  9616
 total energy-change (2. order) : 0.4809408E-08  (-0.2698346E-09)
 number of electron  351.9999998 magnetization 
 augmentation part   230.1593988 magnetization 

 Free energy of the ion-electron system (eV)
  ---------------------------------------------------
  alpha Z        PSCENC =      3400.89143748
  Ewald energy   TEWEN  =    -35145.60365850
  -1/2 Hartree   DENC   =     -9848.56360705
  -V(xc)+E(xc)   XCENC  =      1368.74349865
  PAW double counting   =     35063.52152892   -39694.06090441
  entropy T*S    EENTRO =        -0.00101445
  eigenvalues    EBANDS =       224.81463293
  atomic energy  EATOM  =     44511.25856501
  ---------------------------------------------------
  free energy    TOTEN  =      -118.99952143 eV

  energy without entropy =     -118.99850698  energy(sigma->0) =     -118.99901420


--------------------------------------------------------------------------------------------------------




 average (electrostatic) potential at core
  the test charge radii are     1.0053
  (the norm of the test charge is              1.0000)
       1 -40.0479       2 -40.0418       3 -40.0416       4 -40.0416       5 -40.0416
       6 -40.0416       7 -40.0417       8 -40.0417       9 -40.0577      10 -40.0274
      11 -40.0577      12 -40.0274      13 -40.0424      14 -40.0415      15 -40.0424
      16 -40.0415      17 -40.0577      18 -40.0274      19 -40.0424      20 -40.0415
      21 -40.0577      22 -40.0274      23 -40.0424      24 -40.0415      25 -40.0412
      26 -40.0420      27 -40.0412      28 -40.0420      29 -40.0412      30 -40.0420
      31 -40.0412      32 -40.0420
 
 
 
 E-fermi :   3.6392     XC(G=0): -12.6970     alpha+bet : -9.4615
   add alpha+bet to get absolut eigen values

 k-point   1 :       0.0000    0.0000    0.0000
  band No.  band energies     occupation 
      1      -5.5739      2.00000
      2      -2.8782      2.00000
      3      -2.8421      2.00000
      4      -2.8419      2.00000
      5      -2.8419      2.00000
      6      -2.8417      2.00000
      7      -2.8082      2.00000
      8      -1.3548      2.00000
      9      -1.3548      2.00000
     10      -1.3542      2.00000
     11      -1.3539      2.00000
     12      -1.1558      2.00000
     13      -1.1520      2.00000
     14      -1.1512      2.00000
     15      -1.0136      2.00000
     16      -0.9921      2.00000
     17      -0.9921      2.00000
     18      -0.9788      2.00000
     19      -0.9776      2.00000
     20      -0.9775      2.00000
     21      -0.9761      2.00000
     22      -0.9761      2.00000
     23      -0.9732      2.00000
     24      -0.9616      2.00000
     25      -0.9616      2.00000
     26      -0.9360      2.00000
     27      -0.7126      2.00000
     28      -0.7108      2.00000
     29      -0.7108      2.00000
     30      -0.4524      2.00000
     31      -0.4288      2.00000
     32      -0.4288      2.00000
     33      -0.4288      2.00000
     34      -0.4283      2.00000
     35      -0.4100      2.00000
     36      -0.0771      2.00000
     37      -0.0555      2.00000
     38      -0.0555      2.00000
     39      -0.0518      2.00000
     40      -0.0516      2.00000
     41      -0.0370      2.00000
     42       0.1112      2.00000
     43       0.1253      2.00000
     44       0.1253      2.00000
     45       0.1518      2.00000
     46       0.1532      2.00000
     47       0.1532      2.00000
     48       0.1533      2.00000
     49       0.1544      2.00000
     50       0.1549      2.00000
     51       0.1559      2.00000
     52       0.1559      2.00000
     53       0.1576      2.00000
     54       0.1576      2.00000
     55       0.1584      2.00000
     56       0.1589      2.00000
     57       0.1592      2.00000
     58       0.1592      2.00000
     59       0.1608      2.00000
     60       0.1608      2.00000
     61       0.1614      2.00000
     62       0.1618      2.00000
     63       0.1851      2.00000
     64       0.1851      2.00000
     65       0.2081      2.00000
     66       0.3314      2.00000
     67       0.3571      2.00000
     68       0.3573      2.00000
     69       0.3573      2.00000
     70       0.3628      2.00000
     71       0.3628      2.00000
     72       0.3631      2.00000
     73       0.3635      2.00000
     74       0.3654      2.00000
     75       0.3691      2.00000
     76       0.3691      2.00000
     77       0.3939      2.00000
     78       0.6096      2.00000
     79       0.6113      2.00000
     80       0.6113      2.00000
     81       0.6145      2.00000
     82       0.6152      2.00000
     83       0.6152      2.00000
     84       0.6161      2.00000
     85       0.6183      2.00000
     86       0.6410      2.00000
     87       0.6410      2.00000
     88       0.6444      2.00000
     89       0.9891      2.00000
     90       1.0014      2.00000
     91       1.0087      2.00000
     92       1.0087      2.00000
     93       1.0093      2.00000
     94       1.0242      2.00000
     95       1.1125      2.00000
     96       1.1234      2.00000
     97       1.1270      2.00000
     98       1.1270      2.00000
     99       1.1340      2.00000
    100       1.1340      2.00000
    101       1.1343      2.00000
    102       1.1345      2.00000
    103       1.1390      2.00000
    104       1.1390      2.00000
    105       1.1490      2.00000
    106       1.1529      2.00000
    107       1.2631      2.00000
    108       1.2631      2.00000
    109       1.2838      2.00000
    110       1.2838      2.00000
    111       1.2862      2.00000
    112       1.2866      2.00000
    113       1.2884      2.00000
    114       1.2886      2.00000
    115       1.2886      2.00000
    116       1.2887      2.00000
    117       1.3042      2.00000
    118       1.3042      2.00000
    119       1.3975      2.00000
    120       1.4054      2.00000
    121       1.4054      2.00000
    122       1.4108      2.00000
    123       1.4118      2.00000
    124       1.4183      2.00000
    125       1.4284      2.00000
    126       1.4284      2.00000
    127       1.4369      2.00000
    128       1.4380      2.00000
    129       1.4419      2.00000
    130       1.4423      2.00000
    131       1.4424      2.00000
    132       1.4424      2.00000
    133       1.4436      2.00000
    134       1.4473      2.00000
    135       1.4494      2.00000
    136       1.4629      2.00000
    137       1.4691      2.00000
    138       1.4691      2.00000
    139       1.7035      2.00000
    140       1.7131      2.00000
    141       1.7134      2.00000
    142       1.7134      2.00000
    143       1.7135      2.00000
    144       1.7227      2.00000
    145       1.9819      2.00000
    146       1.9830      2.00000
    147       1.9838      2.00000
    148       1.9951      2.00000
    149       1.9963      2.00000
    150       1.9963      2.00000
    151       1.9964      2.00000
    152       1.9969      2.00000
    153       1.9972      2.00000
    154       1.9972      2.00000
    155       1.9987      2.00000
    156       2.1249      2.00000
    157       2.1302      2.00000
    158       2.1323      2.00000
    159       2.1323      2.00000
    160       2.1334      2.00000
    161       2.1334      2.00000
    162       2.1336      2.00000
    163       2.1338      2.00000
    164       2.1338      2.00000
    165       2.1340      2.00000
    166       2.1341      2.00000
    167       2.1412      2.00000
    168       2.6954      2.00000
    169       2.6983      2.00000
    170       2.6983      2.00000
    171       2.6991      2.00000
    172       3.2898      2.00000
    173       3.2927      2.00000
    174       3.2927      2.00000
    175       3.3035      2.00000
    176       3.3056      2.00000
    177       3.3062      2.00000
    178       3.3062      2.00000
    179       3.3062      2.00000
    180       3.3102      2.00000
    181       3.3199      2.00000
    182       3.3199      2.00000
    183       3.3226      2.00000
    184       5.1653      0.00000
    185       5.1653      0.00000
    186       5.1715      0.00000
    187       7.3009      0.00000
    188       7.3009      0.00000
    189       7.3020      0.00000
    190       7.3031      0.00000
    191       9.7437      0.00000
    192       9.7437      0.00000
    193       9.7837      0.00000
    194       9.7837      0.00000
    195       9.7881      0.00000
    196       9.7883      0.00000
    197       9.7890      0.00000
    198       9.7923      0.00000
    199       9.7923      0.00000
    200       9.7947      0.00000
    201       9.8300      0.00000
    202       9.8300      0.00000
    203      10.6318      0.00000
    204      10.6366      0.00000
    205      10.6367      0.00000
    206      11.8381      0.00000
    207      11.8738      0.00000
    208      11.8739      0.00000
    209      11.8757      0.00000
    210      11.8757      0.00000
    211      11.9001      0.00000
    212      12.3110      0.00000
    213      12.3171      0.00000
    214      12.3202      0.00000
    215      12.3217      0.00000
    216      12.3224      0.00000

 k-point   2 :       0.1429    0.0000    0.0000
  band No.  band energies     occupation 
      1      -5.5126      2.00000
      2      -3.4950      2.00000
      3      -2.7939      2.00000
      4      -2.7922      2.00000
      5      -2.7921      2.00000
      6      -2.7921      2.00000
      7      -2.2037      2.00000
      8      -1.3546      2.00000
      9      -1.3438      2.00000
     10      -1.3438      2.00000
     11      -1.3418      2.00000
     12      -1.3405      2.00000
     13      -1.3393      2.00000
     14      -1.3393      2.00000
     15      -1.3292      2.00000
     16      -1.1523      2.00000
     17      -1.1242      2.00000
     18      -1.1230      2.00000
     19      -1.0055      2.00000
     20      -1.0047      2.00000
     21      -1.0045      2.00000
     22      -1.0045      2.00000
     23      -0.6965      2.00000
     24      -0.6941      2.00000
     25      -0.6941      2.00000
     26      -0.6661      2.00000
     27      -0.6661      2.00000
     28      -0.6659      2.00000
     29      -0.6644      2.00000
     30      -0.4832      2.00000
     31      -0.4761      2.00000
     32      -0.4069      2.00000
     33      -0.4069      2.00000
     34      -0.4068      2.00000
     35      -0.4049      2.00000
     36      -0.2041      2.00000
     37      -0.0839      2.00000
     38      -0.0839      2.00000
     39      -0.0512      2.00000
     40      -0.0446      2.00000
     41      -0.0440      2.00000
     42      -0.0440      2.00000
     43       0.0904      2.00000
     44       0.1133      2.00000
     45       0.1223      2.00000
     46       0.1223      2.00000
     47       0.1283      2.00000
     48       0.1288      2.00000
     49       0.1313      2.00000
     50       0.1323      2.00000
     51       0.1323      2.00000
     52       0.1544      2.00000
     53       0.1581      2.00000
     54       0.1583      2.00000
     55       0.1583      2.00000
     56       0.1776      2.00000
     57       0.1792      2.00000
     58       0.1792      2.00000
     59       0.1923      2.00000
     60       0.2217      2.00000
     61       0.2245      2.00000
     62       0.2245      2.00000
     63       0.2345      2.00000
     64       0.2348      2.00000
     65       0.2375      2.00000
     66       0.2375      2.00000
     67       0.2393      2.00000
     68       0.3769      2.00000
     69       0.3769      2.00000
     70       0.3783      2.00000
     71       0.3798      2.00000
     72       0.4298      2.00000
     73       0.4298      2.00000
     74       0.4509      2.00000
     75       0.4539      2.00000
     76       0.4539      2.00000
     77       0.4571      2.00000
     78       0.6036      2.00000
     79       0.6036      2.00000
     80       0.6046      2.00000
     81       0.6069      2.00000
     82       0.6251      2.00000
     83       0.6267      2.00000
     84       0.6270      2.00000
     85       0.6270      2.00000
     86       0.6301      2.00000
     87       0.6554      2.00000
     88       0.6554      2.00000
     89       0.9296      2.00000
     90       0.9342      2.00000
     91       0.9347      2.00000
     92       0.9347      2.00000
     93       1.0333      2.00000
     94       1.0675      2.00000
     95       1.0725      2.00000
     96       1.0725      2.00000
     97       1.0744      2.00000
     98       1.0947      2.00000
     99       1.1268      2.00000
    100       1.1268      2.00000
[...]
     72       0.6199      2.00000
     73       0.6223      2.00000
     74       0.6415      2.00000
     75       0.6479      2.00000
     76       0.6553      2.00000
     77       0.6801      2.00000
     78       0.6807      2.00000
     79       0.6909      2.00000
     80       0.6911      2.00000
     81       0.6958      2.00000
     82       0.6969      2.00000
     83       0.7011      2.00000
     84       0.7078      2.00000
     85       0.7151      2.00000
     86       0.7694      2.00000
     87       0.7719      2.00000
     88       0.7811      2.00000
     89       0.7841      2.00000
     90       0.7920      2.00000
     91       0.7944      2.00000
     92       0.7967      2.00000
     93       0.8020      2.00000
     94       0.8026      2.00000
     95       0.8040      2.00000
     96       0.8082      2.00000
     97       0.8083      2.00000
     98       0.8123      2.00000
     99       0.8124      2.00000
    100       0.8182      2.00000
    101       0.8196      2.00000
    102       0.8431      2.00000
    103       0.8478      2.00000
    104       0.8484      2.00000
    105       1.1128      2.00000
    106       1.1144      2.00000
    107       1.1160      2.00000
    108       1.2092      2.00000
    109       1.2124      2.00000
    110       1.2216      2.00000
    111       1.2234      2.00000
    112       1.2251      2.00000
    113       1.2294      2.00000
    114       1.2308      2.00000
    115       1.2367      2.00000
    116       1.2457      2.00000
    117       1.2935      2.00000
    118       1.3041      2.00000
    119       1.3146      2.00000
    120       1.3349      2.00000
    121       1.3359      2.00000
    122       1.3425      2.00000
    123       1.3427      2.00000
    124       1.3501      2.00000
    125       1.3507      2.00000
    126       1.4228      2.00000
    127       1.4270      2.00000
    128       1.4274      2.00000
    129       1.4463      2.00000
    130       1.4533      2.00000
    131       1.4587      2.00000
    132       1.4650      2.00000
    133       1.4671      2.00000
    134       1.4791      2.00000
    135       1.4901      2.00000
    136       1.4962      2.00000
    137       1.5599      2.00000
    138       1.5670      2.00000
    139       1.5755      2.00000
    140       1.6127      2.00000
    141       1.6131      2.00000
    142       1.6311      2.00000
    143       1.6373      2.00000
    144       1.6424      2.00000
    145       2.0026      2.00000
    146       2.0032      2.00000
    147       2.0074      2.00000
    148       2.0136      2.00000
    149       2.0161      2.00000
    150       2.0185      2.00000
    151       2.0187      2.00000
    152       2.0191      2.00000
    153       2.0197      2.00000
    154       2.0207      2.00000
    155       2.0211      2.00000
    156       2.0215      2.00000
    157       2.0224      2.00000
    158       2.0238      2.00000
    159       2.0253      2.00000
    160       2.0278      2.00000
    161       2.0287      2.00000
    162       2.0299      2.00000
    163       2.0358      2.00000
    164       2.0366      2.00000
    165       2.0392      2.00000
    166       2.0459      2.00000
    167       2.0459      2.00000
    168       2.0476      2.00000
    169       3.7219      0.00000
    170       3.7322      0.00000
    171       3.7413      0.00000
    172       4.0871      0.00000
    173       4.0917      0.00000
    174       4.1030      0.00000
    175       4.1031      0.00000
    176       4.1124      0.00000
    177       4.1194      0.00000
    178       4.3909      0.00000
    179       4.3935      0.00000
    180       4.3939      0.00000
    181       4.6875      0.00000
    182       4.6896      0.00000
    183       4.6929      0.00000
    184       5.1018      0.00000
    185       5.1106      0.00000
    186       5.1206      0.00000
    187       5.1218      0.00000
    188       5.1310      0.00000
    189       5.1407      0.00000
    190       5.4495      0.00000
    191       5.4611      0.00000
    192       5.4751      0.00000
    193       9.0224      0.00000
    194       9.0291      0.00000
    195       9.0328      0.00000
    196       9.4616      0.00000
    197       9.4660      0.00000
    198       9.4727      0.00000
    199      10.0587      0.00000
    200      10.0658      0.00000
    201      10.0853      0.00000
    202      10.0855      0.00000
    203      10.1012      0.00000
    204      10.1080      0.00000
    205      10.5264      0.00000
    206      10.5315      0.00000
    207      10.5468      0.00000
    208      10.5473      0.00000
    209      10.5653      0.00000
    210      10.5699      0.00000
    211      11.1828      0.00000
    212      11.1891      0.00000
    213      11.1934      0.00000
    214      11.6515      0.00000
    215      11.6590      0.00000
    216      11.6652      0.00000


--------------------------------------------------------------------------------------------------------


 soft charge-density along one line, spin component           1
         0         1         2         3         4         5         6         7         8         9
 total charge-density along one line
 
 pseudopotential strength for first ion, spin component:           1
 -6.513   0.000  -0.000  -0.000   0.000  -0.223  -0.000   0.000
  0.000  -6.513  -0.000   0.000  -0.000  -0.000  -0.223   0.000
 -0.000  -0.000  -6.495   0.000  -0.001   0.000   0.000  -0.231
 -0.000   0.000   0.000  -6.513  -0.000  -0.000  -0.000  -0.000
  0.000  -0.000  -0.001  -0.000  -6.495  -0.000   0.000   0.000
 -0.223  -0.000   0.000  -0.000  -0.000   1.668   0.000  -0.000
 -0.000  -0.223   0.000  -0.000   0.000   0.000   1.668  -0.000
  0.000   0.000  -0.231  -0.000   0.000  -0.000  -0.000   1.671
 -0.000  -0.000  -0.000  -0.223   0.000   0.000   0.000   0.000
 -0.000   0.000   0.000   0.000  -0.231   0.000  -0.000  -0.000
 -0.000  -0.000   0.000  -0.000  -0.000  -0.000  -0.000  -0.000
  0.000   0.000  -0.000   0.000   0.000  -0.000  -0.000   0.000
  0.001   0.000  -0.000  -0.000  -0.000   0.000  -0.000  -0.000
 -0.000   0.000   0.000   0.001   0.000  -0.000  -0.000  -0.000
  0.000  -0.000  -0.000   0.000   0.000   0.000  -0.000  -0.000
 -0.000  -0.000   0.000   0.000  -0.000  -0.000   0.000  -0.000
  0.000   0.000   0.000  -0.000  -0.000  -0.000   0.000  -0.000
 -0.000   0.000  -0.000  -0.000   0.000   0.000  -0.000   0.000
 total augmentation occupancy for first ion, spin component:           1
  1.905  -0.000  -0.003  -0.001  -0.001  -0.013  -0.000   0.001   0.000   0.000   0.007   0.000   0.013   0.000  -0.000  -0.001
 -0.000   1.907  -0.000  -0.001  -0.002  -0.000  -0.017   0.001   0.001   0.001   0.005   0.000  -0.000   0.000  -0.000  -0.000
 -0.003  -0.000   1.921  -0.000  -0.003   0.001   0.001  -0.060   0.001   0.003   0.012   0.002   0.000  -0.000  -0.002  -0.000
 -0.001  -0.001  -0.000   1.910   0.001   0.000   0.001   0.001  -0.019   0.000   0.003  -0.000   0.000   0.012  -0.000  -0.000
 -0.001  -0.002  -0.003   0.001   1.910   0.000   0.001   0.003   0.000  -0.053   0.007   0.002   0.000   0.000   0.003   0.000
 -0.013  -0.000   0.001   0.000   0.000   0.076   0.000   0.001  -0.000  -0.000  -0.002   0.000   0.012  -0.000   0.000  -0.001
 -0.000  -0.017   0.001   0.001   0.001   0.000   0.079  -0.001  -0.000   0.001  -0.001   0.001   0.000  -0.000   0.000   0.000
  0.001   0.001  -0.060   0.001   0.003   0.001  -0.001   0.075  -0.001  -0.001  -0.007   0.000   0.000   0.000  -0.003   0.000
  0.000   0.001   0.001  -0.019   0.000  -0.000  -0.000  -0.001   0.081  -0.001   0.001   0.001  -0.000   0.012   0.000   0.000
  0.000   0.001   0.003   0.000  -0.053  -0.000   0.001  -0.001  -0.001   0.072  -0.005   0.000  -0.000  -0.000   0.007   0.000
  0.007   0.005   0.012   0.003   0.007  -0.002  -0.001  -0.007   0.001  -0.005   1.207  -0.353  -0.000   0.000   0.035   0.000
  0.000   0.000   0.002  -0.000   0.002   0.000   0.001   0.000   0.001   0.000  -0.353   0.150   0.000   0.000  -0.010  -0.000
  0.013  -0.000   0.000   0.000   0.000   0.012   0.000   0.000  -0.000  -0.000  -0.000   0.000   0.189  -0.001   0.001  -0.013
  0.000   0.000  -0.000   0.012   0.000  -0.000  -0.000   0.000   0.012  -0.000   0.000   0.000  -0.001   0.190  -0.002  -0.000
 -0.000  -0.000  -0.002  -0.000   0.003   0.000   0.000  -0.003   0.000   0.007   0.035  -0.010   0.001  -0.002   0.188  -0.000
 -0.001  -0.000  -0.000  -0.000   0.000  -0.001   0.000   0.000   0.000   0.000   0.000  -0.000  -0.013  -0.000  -0.000   0.001
 -0.000  -0.000  -0.000  -0.001   0.000   0.000   0.000  -0.000  -0.001   0.000   0.000  -0.000  -0.000  -0.013  -0.000   0.000
  0.000  -0.000   0.000   0.000  -0.000  -0.000  -0.000   0.000  -0.000  -0.001  -0.003   0.001  -0.000  -0.000  -0.013   0.000


------------------------ aborting loop because EDIFF is reached ----------------------------------------




--------------------------------------------------------------------------------------------------------


    CHARGE:  VPU time    9.20: CPU time    9.22
    FORLOC:  VPU time    0.03: CPU time    0.03
    FORNL :  VPU time   51.23: CPU time   51.31
    STRESS:  VPU time  112.17: CPU time  112.35
    FORCOR:  VPU time    0.32: CPU time    0.33
    FORHAR:  VPU time    0.10: CPU time    0.10
    MIXING:  VPU time    0.02: CPU time    0.02


--------------------------------------------------------------------------------------------------------



  FREE ENERGIE OF THE ION-ELECTRON SYSTEM (eV)
  ---------------------------------------------------
  free  energy   TOTEN  =      -118.999521 eV

  energy  without entropy=     -118.998507  energy(sigma->0) =     -118.999014
 

  FORCE on cell =-STRESS in cart. coord.  units (eV/reduce length):
  Direction    X        Y        Z        XY       YZ       ZX
  --------------------------------------------------------------------------------------
  Alpha Z   3400.89   3400.89   3400.89
  Ewald   -11719.58 -11713.08 -11713.08     -0.00     -0.00     -0.00
  Hartree   3279.74   3284.41   3284.41     -0.00     -0.00     -0.00
  E(xc)    -2004.40  -2004.39  -2004.39     -0.00     -0.00     -0.00
  Local     3892.01   3880.86   3880.86     -0.00     -0.00     -0.00
  n-local  -1171.70  -1174.61  -1168.75      1.84      1.00      0.20
  augment   1809.16   1809.16   1809.16     -0.00     -0.00     -0.00
  Kinetic   2513.94   2511.52   2516.36      0.23     -1.12     -2.41
  -------------------------------------------------------------------------------------
  Total        0.07      0.10      0.10      0.00      0.00      0.00
  in kB        0.30      0.41      0.41      0.00      0.00      0.00
  external pressure =        0.38 kB  Pullay stress =        0.00 kB


 VOLUME and BASIS-vectors are now :
 -----------------------------------------------------------------------------
  energy-cutoff  :      500.00
  volume of cell :      384.69
      direct lattice vectors                 reciprocal lattice vectors
     7.272831623  0.000000000  0.000000000     0.137498027  0.000000000  0.000000000
     0.000000000  7.272831623  0.000000000     0.000000000  0.137498027  0.000000000
     0.000000000  0.000000000  7.272831623     0.000000000  0.000000000  0.137498027

  length of vectors
     7.272831623  7.272831623  7.272831623     0.137498027  0.137498027  0.137498027


 FORCES acting on ions
    electron-ion (+dipol)            ewald-force                    non-local-force                 convergence-correction
 -----------------------------------------------------------------------------------------------
   0.636E+02 -.129E-12 -.538E-05   -.641E+02 0.179E-12 0.888E-13   -.253E+00 0.000E+00 0.000E+00   0.495E-04 -.674E-13 0.184E-13
   -.167E+02 -.103E-12 0.545E-05   0.170E+02 0.213E-13 0.163E-12   -.202E+00 0.000E+00 -.678E-19   -.109E-04 -.910E-13 -.116E-12
   0.530E+01 0.883E-12 0.458E-09   -.535E+01 -.444E-14 0.124E-12   0.473E-01 0.217E-18 -.678E-20   -.894E-04 0.416E-13 -.138E-12
   -.428E+01 -.474E-11 0.462E-09   0.421E+01 0.924E-13 0.163E-12   0.767E-01 -.217E-18 0.000E+00   0.125E-03 0.485E-14 -.176E-12
   0.530E+01 -.148E-12 -.261E-07   -.535E+01 0.400E-13 0.462E-13   0.473E-01 0.542E-19 -.813E-19   -.816E-04 -.653E-13 -.544E-14
   -.428E+01 -.137E-12 -.261E-07   0.421E+01 -.355E-13 0.711E-14   0.767E-01 0.000E+00 -.108E-18   0.123E-03 -.103E-12 -.137E-12
   0.222E+01 0.909E-12 -.285E-10   -.221E+01 0.133E-13 -.178E-13   -.149E-01 0.000E+00 0.000E+00   -.261E-04 0.401E-13 -.628E-13
   -.208E+01 -.457E-11 -.304E-10   0.207E+01 0.924E-13 -.107E-12   0.835E-02 0.542E-19 -.271E-19   0.472E-04 -.132E-14 -.172E-12
   -.776E+01 -.163E+02 0.224E-08   0.782E+01 0.164E+02 0.711E-14   0.481E-01 0.453E-02 0.271E-19   0.493E-04 0.423E-04 -.148E-12
   -.844E+01 0.147E+02 0.227E-08   0.844E+01 -.148E+02 0.107E-13   0.667E-01 -.238E-01 -.217E-18   -.855E-04 0.181E-03 -.141E-12
   -.776E+01 0.163E+02 0.224E-08   0.782E+01 -.164E+02 0.782E-13   0.481E-01 -.453E-02 0.000E+00   0.493E-04 -.423E-04 -.123E-12
   -.844E+01 -.147E+02 0.227E-08   0.844E+01 0.148E+02 0.192E-12   0.667E-01 0.238E-01 0.000E+00   -.855E-04 -.181E-03 -.104E-12
   -.770E-01 -.129E+01 0.199E-10   0.105E+00 0.129E+01 0.995E-13   -.246E-01 -.232E-02 0.271E-19   -.151E-04 0.718E-04 -.136E-12
   -.385E+00 0.127E+01 0.158E-10   0.413E+00 -.127E+01 -.107E-13   -.247E-01 0.211E-02 0.339E-19   -.994E-05 0.430E-05 -.919E-13
   -.770E-01 0.129E+01 0.203E-10   0.105E+00 -.129E+01 -.782E-13   -.246E-01 0.232E-02 0.000E+00   -.151E-04 -.718E-04 -.123E-12
   -.385E+00 -.127E+01 0.149E-10   0.413E+00 0.127E+01 -.782E-13   -.247E-01 -.211E-02 0.000E+00   -.994E-05 -.430E-05 -.479E-13
   -.776E+01 -.127E-12 -.163E+02   0.782E+01 -.453E-13 0.164E+02   0.481E-01 -.108E-18 0.453E-02   0.479E-04 -.840E-13 0.434E-04
   -.844E+01 -.182E-12 0.147E+02   0.844E+01 -.109E-12 -.148E+02   0.667E-01 0.000E+00 -.238E-01   -.868E-04 -.824E-13 0.180E-03
   -.770E-01 0.770E-12 -.129E+01   0.105E+00 -.790E-13 0.129E+01   -.246E-01 0.000E+00 -.232E-02   -.148E-04 0.366E-13 0.728E-04
   -.385E+00 0.377E-11 0.127E+01   0.413E+00 -.293E-13 -.127E+01   -.247E-01 0.217E-18 0.211E-02   -.958E-05 0.101E-13 0.331E-05
   -.776E+01 -.126E-12 0.163E+02   0.782E+01 -.364E-13 -.164E+02   0.481E-01 0.000E+00 -.453E-02   0.479E-04 -.860E-13 -.434E-04
   -.844E+01 -.125E-12 -.147E+02   0.844E+01 -.150E-12 0.148E+02   0.667E-01 0.217E-18 0.238E-01   -.868E-04 -.788E-13 -.180E-03
   -.770E-01 0.117E-11 0.129E+01   0.105E+00 -.773E-13 -.129E+01   -.246E-01 0.000E+00 0.232E-02   -.148E-04 0.403E-13 -.728E-04
   -.385E+00 0.336E-11 -.127E+01   0.413E+00 -.204E-13 0.127E+01   -.247E-01 0.108E-18 -.211E-02   -.958E-05 0.132E-13 -.331E-05
   0.100E+02 0.475E+00 0.475E+00   -.101E+02 -.476E+00 -.476E+00   0.366E-01 -.112E-02 -.112E-02   -.409E-04 0.109E-03 0.109E-03
   -.563E+01 -.140E+00 -.140E+00   0.569E+01 0.143E+00 0.143E+00   -.484E-01 -.254E-02 -.254E-02   0.677E-04 0.391E-04 0.391E-04
   0.100E+02 -.475E+00 0.475E+00   -.101E+02 0.476E+00 -.476E+00   0.366E-01 0.112E-02 -.112E-02   -.409E-04 -.109E-03 0.109E-03
   -.563E+01 0.140E+00 -.140E+00   0.569E+01 -.143E+00 0.143E+00   -.484E-01 0.254E-02 -.254E-02   0.677E-04 -.391E-04 0.391E-04
   0.100E+02 0.475E+00 -.475E+00   -.101E+02 -.476E+00 0.476E+00   0.366E-01 -.112E-02 0.112E-02   -.409E-04 0.109E-03 -.109E-03
   -.563E+01 -.140E+00 0.140E+00   0.569E+01 0.143E+00 -.143E+00   -.484E-01 -.254E-02 0.254E-02   0.677E-04 0.391E-04 -.391E-04
   0.100E+02 -.475E+00 -.475E+00   -.101E+02 0.476E+00 0.476E+00   0.366E-01 0.112E-02 0.112E-02   -.409E-04 -.109E-03 -.109E-03
   -.563E+01 0.140E+00 0.140E+00   0.569E+01 -.143E+00 -.143E+00   -.484E-01 0.254E-02 0.254E-02   0.677E-04 -.391E-04 -.391E-04
 -----------------------------------------------------------------------------------------------
   -.181E-02 0.364E-10 0.509E-08   0.121E-12 -.907E-13 -.160E-12   0.186E-02 -.390E-17 0.607E-17   -.510E-05 -.152E-11 -.352E-11
 
 
 POSITION                                       TOTAL-FORCE (eV/Angst)
 -----------------------------------------------------------------------------------
      0.10909      0.00000      0.00000        -0.720316      0.000000     -0.000000
      3.63642      0.00000      0.00000         0.012332      0.000000      0.000000
      0.00000      3.63642      0.00000        -0.004623      0.000000     -0.000000
      3.63642      3.63642      0.00000         0.000558      0.000000     -0.000000
      0.00000      0.00000      3.63642        -0.004623      0.000000     -0.000000
      3.63642      0.00000      3.63642         0.000558      0.000000     -0.000000
      0.00000      3.63642      3.63642         0.000273      0.000000     -0.000000
      3.63642      3.63642      3.63642        -0.003286     -0.000000      0.000000
      1.81821      1.81821      0.00000         0.102389      0.122426     -0.000000
      5.45462      1.81821      0.00000         0.072567     -0.080287     -0.000000
      1.81821      5.45462      0.00000         0.102389     -0.122426     -0.000000
      5.45462      5.45462      0.00000         0.072567      0.080287     -0.000000
      1.81821      1.81821      3.63642         0.003085      0.002122      0.000000
      5.45462      1.81821      3.63642         0.003004     -0.002235      0.000000
      1.81821      5.45462      3.63642         0.003085     -0.002122      0.000000
      5.45462      5.45462      3.63642         0.003004      0.002235      0.000000
      1.81821      0.00000      1.81821         0.102389      0.000000      0.122426
      5.45462      0.00000      1.81821         0.072567      0.000000     -0.080287
      1.81821      3.63642      1.81821         0.003085     -0.000000      0.002122
      5.45462      3.63642      1.81821         0.003004      0.000000     -0.002235
      1.81821      0.00000      5.45462         0.102389      0.000000     -0.122426
      5.45462      0.00000      5.45462         0.072567      0.000000      0.080287
      1.81821      3.63642      5.45462         0.003085     -0.000000     -0.002122
      5.45462      3.63642      5.45462         0.003004      0.000000      0.002235
      0.00000      1.81821      1.81821        -0.008238     -0.002120     -0.002120
      3.63642      1.81821      1.81821         0.006974      0.000214      0.000214
      0.00000      5.45462      1.81821        -0.008238      0.002120     -0.002120
      3.63642      5.45462      1.81821         0.006974     -0.000214      0.000214
      0.00000      1.81821      5.45462        -0.008238     -0.002120      0.002120
      3.63642      1.81821      5.45462         0.006974      0.000214     -0.000214
      0.00000      5.45462      5.45462        -0.008238      0.002120      0.002120
      3.63642      5.45462      5.45462         0.006974     -0.000214     -0.000214
 -----------------------------------------------------------------------------------
    total drift:                                0.000044      0.000000      0.000000


--------------------------------------------------------------------------------------------------------



 mean value of Nose-termostat <S>:     1.000 mean value of <T> :     0.000
 mean temperature <T/S>/<1/S>  :     0.000

     LOOP+:  VPU time 5778.01: CPU time 5795.64
  
  
 General timing and accounting informations for this job:
 ========================================================
  
                  Total CPU time used (sec):     5820.150
                            User time (sec):     5516.820
                          System time (sec):      303.330
                         Elapsed time (sec):     5837.829
  
                   Maximum memory used (kb):     2441184.
                   Average memory used (kb):           0.
  
                          Minor page faults:       411212
                          Major page faults:            0
                 Voluntary context switches:         1059
