   4   4   0   0
  0.1596038E+02  0.3996696E-09  0.3996696E-09  0.3996696E-09  0.5000000E-15
  1.000000000000000E-004
  CAR 
 unknown system                          
     16.89586071     -5.13061502  301      4.19140586      1.00000000
     -5.131  0.0000E+00  0.0000E+00
     -5.057  0.0000E+00  0.0000E+00
     -4.984  0.0000E+00  0.0000E+00
     -4.910  0.0000E+00  0.0000E+00
     -4.837  0.0000E+00  0.0000E+00
     -4.764  0.0000E+00  0.0000E+00
     -4.690  0.0000E+00  0.0000E+00
     -4.617  0.0000E+00  0.0000E+00
     -4.543  0.0000E+00  0.0000E+00
     -4.470  0.0000E+00  0.0000E+00
     -4.396  0.0000E+00  0.0000E+00
     -4.323  0.0000E+00  0.0000E+00
     -4.250  0.0000E+00  0.0000E+00
     -4.176  0.3079E-12  0.2260E-13
     -4.103  0.1576E-01  0.1157E-02
     -4.029  0.9453E-01  0.8098E-02
     -3.956  0.1888E+00  0.2197E-01
     -3.882  0.1258E+00  0.3122E-01
     -3.809  0.9377E-01  0.3813E-01
     -3.736  0.3761E+00  0.6581E-01
     -3.662  0.3777E+00  0.9371E-01
     -3.589  0.8895E-12  0.9375E-01
     -3.515  0.1891E+00  0.1076E+00
     -3.442  0.4729E+00  0.1424E+00
     -3.368  0.3783E+00  0.1701E+00
     -3.295  0.4290E+00  0.2016E+00
     -3.222  0.7740E-01  0.2073E+00
     -3.148  0.9508E+00  0.2771E+00
     -3.075  0.1823E+00  0.2905E+00
     -3.001  0.4191E+00  0.3213E+00
     -2.928  0.3780E+00  0.3530E+00
     -2.855  0.9431E+00  0.4223E+00
     -2.781  0.5669E+00  0.4641E+00
     -2.708  0.1756E+01  0.5936E+00
     -2.634  0.2027E+01  0.7428E+00
     -2.561  0.5873E+01  0.1174E+01
     -2.487  0.5809E+01  0.1610E+01
     -2.414  0.7679E+01  0.2176E+01
     -2.341  0.9149E+01  0.2849E+01
     -2.267  0.1085E+02  0.3657E+01
     -2.194  0.1078E+02  0.4450E+01
     -2.120  0.1652E+02  0.5667E+01
     -2.047  0.1037E+02  0.6435E+01
     -1.973  0.1186E+02  0.7307E+01
     -1.900  0.1154E+02  0.8158E+01
     -1.827  0.7328E+01  0.8703E+01
     -1.753  0.1041E+02  0.9472E+01
     -1.680  0.6043E+01  0.9935E+01
     -1.606  0.6075E+01  0.1038E+02
     -1.533  0.1153E+02  0.1123E+02
     -1.460  0.5695E+01  0.1166E+02
     -1.386  0.1042E+02  0.1243E+02
     -1.313  0.8423E+01  0.1306E+02
     -1.239  0.9913E+01  0.1379E+02
     -1.166  0.1114E+02  0.1461E+02
     -1.092  0.7091E+01  0.1515E+02
     -1.019  0.6950E+01  0.1566E+02
     -0.946  0.1155E+02  0.1651E+02
     -0.872  0.8544E+01  0.1714E+02
     -0.799  0.1358E+02  0.1814E+02
     -0.725  0.1650E+02  0.1938E+02
     -0.652  0.1614E+02  0.2057E+02
     -0.578  0.1140E+02  0.2142E+02
     -0.505  0.1667E+02  0.2265E+02
     -0.432  0.7348E+01  0.2320E+02
     -0.358  0.8869E+01  0.2386E+02
     -0.285  0.1019E+02  0.2461E+02
     -0.211  0.1033E+02  0.2538E+02
     -0.138  0.5882E+01  0.2582E+02
     -0.065  0.9968E+01  0.2656E+02
      0.009  0.1063E+02  0.2735E+02
      0.082  0.1133E+02  0.2819E+02
      0.156  0.1008E+02  0.2894E+02
      0.229  0.1370E+02  0.2995E+02
      0.303  0.1072E+02  0.3075E+02
      0.376  0.1052E+02  0.3152E+02
      0.449  0.7847E+01  0.3210E+02
      0.523  0.9707E+01  0.3281E+02
      0.596  0.7818E+01  0.3340E+02
      0.670  0.1093E+02  0.3420E+02
      0.743  0.9460E+01  0.3490E+02
      0.817  0.8946E+01  0.3556E+02
      0.890  0.7980E+01  0.3615E+02
      0.963  0.1258E+02  0.3708E+02
      1.037  0.1435E+02  0.3813E+02
      1.110  0.1655E+02  0.3936E+02
      1.184  0.1567E+02  0.4053E+02
      1.257  0.5399E+01  0.4093E+02
      1.330  0.5319E+01  0.4133E+02
      1.404  0.1777E+01  0.4146E+02
      1.477  0.6307E+00  0.4150E+02
      1.551  0.7562E+00  0.4156E+02
      1.624  0.1847E+01  0.4169E+02
      1.698  0.1179E+01  0.4178E+02
      1.771  0.3785E+00  0.4181E+02
      1.844  0.1229E+01  0.4190E+02
      1.918  0.0000E+00  0.4190E+02
      1.991  0.1389E-05  0.4190E+02
      2.065  0.1130E+01  0.4198E+02
      2.138  0.7389E+00  0.4204E+02
      2.212  0.2156E+01  0.4220E+02
      2.285  0.1327E+01  0.4230E+02
      2.358  0.3746E+00  0.4233E+02
      2.432  0.9807E+00  0.4240E+02
      2.505  0.3627E+00  0.4243E+02
      2.579  0.6726E+00  0.4248E+02
      2.652  0.3781E+00  0.4251E+02
      2.725  0.1860E-02  0.4251E+02
      2.799  0.8419E+00  0.4257E+02
      2.872  0.2506E+01  0.4275E+02
      2.946  0.1189E+01  0.4284E+02
      3.019  0.5729E+00  0.4288E+02
      3.093  0.1110E+01  0.4296E+02
      3.166  0.1026E+01  0.4304E+02
      3.239  0.3805E+00  0.4307E+02
      3.313  0.1133E+01  0.4315E+02
      3.386  0.9511E+00  0.4322E+02
      3.460  0.1839E+00  0.4323E+02
      3.533  0.1058E+00  0.4324E+02
      3.607  0.1744E+01  0.4337E+02
      3.680  0.1428E+01  0.4348E+02
      3.753  0.1470E+01  0.4358E+02
      3.827  0.7569E+00  0.4364E+02
      3.900  0.1513E+01  0.4375E+02
      3.974  0.1137E+01  0.4384E+02
      4.047  0.1357E+01  0.4394E+02
      4.121  0.5312E+00  0.4398E+02
      4.194  0.4333E+00  0.4401E+02
      4.267  0.7912E+00  0.4407E+02
      4.341  0.1297E-09  0.4407E+02
      4.414  0.1222E+01  0.4416E+02
      4.488  0.1045E+01  0.4423E+02
      4.561  0.2627E+01  0.4443E+02
      4.634  0.1141E+01  0.4451E+02
      4.708  0.5341E-07  0.4451E+02
      4.781  0.9712E+00  0.4458E+02
      4.855  0.1677E+01  0.4470E+02
      4.928  0.1108E+01  0.4479E+02
      5.002  0.3953E+00  0.4482E+02
      5.075  0.1538E+01  0.4493E+02
      5.148  0.7072E+00  0.4498E+02
      5.222  0.9722E+00  0.4506E+02
      5.295  0.6012E+00  0.4510E+02
      5.369  0.3783E+00  0.4513E+02
      5.442  0.8922E+00  0.4519E+02
      5.516  0.1566E+01  0.4531E+02
      5.589  0.1167E+01  0.4539E+02
      5.662  0.2192E+01  0.4556E+02
      5.736  0.3358E+00  0.4558E+02
      5.809  0.1225E+01  0.4567E+02
      5.883  0.2413E-08  0.4567E+02
      5.956  0.5675E+00  0.4572E+02
      6.029  0.2265E+01  0.4588E+02
      6.103  0.7435E+00  0.4594E+02
      6.176  0.1381E+01  0.4604E+02
      6.250  0.9551E+00  0.4611E+02
      6.323  0.0000E+00  0.4612E+02
      6.397  0.1667E+00  0.4613E+02
      6.470  0.9670E+00  0.4620E+02
      6.543  0.2420E+01  0.4638E+02
      6.617  0.3783E+00  0.4641E+02
      6.690  0.4684E+00  0.4644E+02
      6.764  0.9020E+00  0.4651E+02
      6.837  0.1688E+01  0.4664E+02
      6.911  0.1167E+01  0.4672E+02
      6.984  0.2599E+00  0.4674E+02
      7.057  0.0000E+00  0.4674E+02
      7.131  0.7823E+00  0.4680E+02
      7.204  0.3867E+00  0.4683E+02
      7.278  0.4673E+00  0.4687E+02
      7.351  0.1847E+01  0.4700E+02
      7.424  0.6114E+00  0.4705E+02
      7.498  0.1419E+01  0.4715E+02
      7.571  0.1926E+00  0.4717E+02
      7.645  0.4264E+00  0.4720E+02
      7.718  0.1087E+01  0.4728E+02
      7.792  0.7567E+00  0.4734E+02
      7.865  0.5172E-06  0.4734E+02
      7.938  0.4619E+00  0.4737E+02
      8.012  0.6731E+00  0.4742E+02
      8.085  0.5026E+00  0.4746E+02
      8.159  0.1625E+01  0.4758E+02
      8.232  0.5799E+00  0.4762E+02
      8.306  0.5642E+00  0.4766E+02
      8.379  0.1187E+01  0.4775E+02
      8.452  0.2231E+01  0.4792E+02
      8.526  0.1175E+01  0.4800E+02
      8.599  0.5891E+00  0.4805E+02
      8.673  0.2872E+01  0.4826E+02
      8.746  0.7507E+00  0.4832E+02
      8.819  0.1384E+01  0.4842E+02
      8.893  0.6794E+00  0.4847E+02
      8.966  0.1691E+01  0.4859E+02
      9.040  0.1734E+01  0.4872E+02
      9.113  0.8958E+00  0.4879E+02
      9.187  0.7740E+00  0.4885E+02
      9.260  0.1874E+01  0.4898E+02
      9.333  0.8885E+00  0.4905E+02
      9.407  0.5381E-01  0.4906E+02
      9.480  0.2591E+01  0.4925E+02
      9.554  0.7616E+00  0.4930E+02
      9.627  0.1132E+01  0.4939E+02
      9.701  0.1242E+01  0.4948E+02
      9.774  0.9452E+00  0.4955E+02
      9.847  0.7259E+00  0.4960E+02
      9.921  0.2337E+01  0.4978E+02
      9.994  0.6803E+00  0.4983E+02
     10.068  0.1144E+01  0.4991E+02
     10.141  0.5651E-01  0.4991E+02
     10.214  0.1385E+01  0.5002E+02
     10.288  0.6390E+00  0.5006E+02
     10.361  0.2487E+01  0.5025E+02
     10.435  0.5681E+00  0.5030E+02
     10.508  0.1713E+01  0.5042E+02
     10.582  0.1815E+00  0.5044E+02
     10.655  0.7424E+00  0.5049E+02
     10.728  0.3783E+00  0.5052E+02
     10.802  0.2104E+01  0.5068E+02
     10.875  0.6736E+00  0.5073E+02
     10.949  0.1208E+01  0.5082E+02
     11.022  0.1506E+01  0.5094E+02
     11.096  0.5213E-03  0.5094E+02
     11.169  0.7140E+00  0.5099E+02
     11.242  0.1848E+01  0.5113E+02
     11.316  0.4066E+00  0.5116E+02
     11.389  0.1485E+01  0.5127E+02
     11.463  0.2020E+01  0.5142E+02
     11.536  0.1041E+01  0.5150E+02
     11.610  0.9338E+00  0.5157E+02
     11.683  0.1244E+01  0.5166E+02
     11.756  0.1253E+01  0.5175E+02
     11.830  0.2012E+01  0.5190E+02
     11.903  0.1528E+01  0.5201E+02
     11.977  0.1135E+01  0.5210E+02
     12.050  0.3175E+01  0.5233E+02
     12.123  0.1513E+01  0.5245E+02
     12.197  0.2645E+01  0.5265E+02
     12.270  0.3918E+00  0.5268E+02
     12.344  0.1095E+01  0.5276E+02
     12.417  0.3961E+00  0.5279E+02
     12.491  0.2715E+01  0.5299E+02
     12.564  0.1975E+01  0.5314E+02
     12.637  0.2764E+01  0.5335E+02
     12.711  0.1772E+01  0.5348E+02
     12.784  0.1430E+01  0.5358E+02
     12.858  0.7590E+00  0.5364E+02
     12.931  0.1377E+01  0.5374E+02
     13.005  0.2858E+01  0.5395E+02
     13.078  0.5419E+00  0.5399E+02
     13.151  0.7396E+00  0.5405E+02
     13.225  0.1155E+01  0.5413E+02
     13.298  0.1919E+01  0.5427E+02
     13.372  0.7601E+00  0.5433E+02
     13.445  0.2501E+01  0.5451E+02
     13.518  0.1523E+01  0.5462E+02
     13.592  0.1894E+01  0.5476E+02
     13.665  0.1006E+01  0.5484E+02
     13.739  0.7567E+00  0.5490E+02
     13.812  0.1911E+01  0.5504E+02
     13.886  0.1099E+01  0.5513E+02
     13.959  0.1327E+01  0.5523E+02
     14.032  0.1188E+01  0.5532E+02
     14.106  0.1794E+01  0.5545E+02
     14.179  0.3528E+00  0.5548E+02
     14.253  0.9598E+00  0.5555E+02
     14.326  0.1038E+01  0.5563E+02
     14.400  0.2482E-01  0.5563E+02
     14.473  0.6004E+00  0.5568E+02
     14.546  0.1682E+01  0.5580E+02
     14.620  0.1830E+00  0.5582E+02
     14.693  0.3782E+00  0.5584E+02
     14.767  0.4034E-09  0.5584E+02
     14.840  0.3784E+00  0.5587E+02
     14.913  0.3783E+00  0.5590E+02
     14.987  0.9827E+00  0.5597E+02
     15.060  0.1523E+00  0.5598E+02
     15.134  0.5146E-01  0.5599E+02
     15.207  0.4313E-01  0.5599E+02
     15.281  0.0000E+00  0.5599E+02
     15.354  0.1141E-05  0.5599E+02
     15.427  0.1576E-01  0.5599E+02
     15.501  0.0000E+00  0.5599E+02
     15.574  0.0000E+00  0.5599E+02
     15.648  0.0000E+00  0.5599E+02
     15.721  0.0000E+00  0.5599E+02
     15.795  0.0000E+00  0.5599E+02
     15.868  0.1006E-04  0.5599E+02
     15.941  0.1261E+00  0.5600E+02
     16.015  0.0000E+00  0.5600E+02
     16.088  0.0000E+00  0.5600E+02
     16.162  0.0000E+00  0.5600E+02
     16.235  0.0000E+00  0.5600E+02
     16.308  0.0000E+00  0.5600E+02
     16.382  0.0000E+00  0.5600E+02
     16.455  0.0000E+00  0.5600E+02
     16.529  0.0000E+00  0.5600E+02
     16.602  0.0000E+00  0.5600E+02
     16.676  0.0000E+00  0.5600E+02
     16.749  0.0000E+00  0.5600E+02
     16.822  0.0000E+00  0.5600E+02
     16.896  0.0000E+00  0.5600E+02
