    4    4    1    1
  0.1596038E+02  0.3996696E-09  0.3996696E-09  0.3996696E-09  0.5000000E-15
  1.000000000000000E-004
  CAR 
 unknown system                          
   44   84   28
 
  0.0000000E+00  0.0000000E+00  0.0000000E+00  0.5787037E-03
   1       -4.1294
   2       -2.7901
   3       -2.7901
   4       -2.7901
   5       -2.6277
   6       -2.6277
   7       -2.6277
   8       -0.9488
   9       -0.9488
  10       -0.9488
  11        0.2159
  12        0.2159
  13        1.0737
  14        1.0737
  15        1.0737
  16        1.3411
  17        1.3411
  18        1.3411
  19        1.3411
  20        1.3411
  21        1.3411
  22        5.7000
  23        5.7000
  24        5.7000
  25       11.4230
  26       11.4230
  27       11.4230
  28       15.3809
 
  0.8333333E-01  0.0000000E+00  0.0000000E+00  0.3472222E-02
   1       -4.0525
   2       -2.7566
   3       -2.7472
   4       -2.7472
   5       -2.6023
   6       -2.5889
   7       -2.5889
   8       -0.9813
   9       -0.9192
  10       -0.9192
  11        0.1831
  12        0.2298
  13        1.0297
  14        1.0297
  15        1.0582
  16        1.1794
  17        1.1794
  18        1.2877
  19        1.2877
  20        1.3412
  21        1.3412
  22        5.2275
  23        5.9226
  24        5.9226
  25       11.4313
  26       11.4313
  27       12.0083
  28       15.1330
 
  0.1666667E+00  0.0000000E+00  0.0000000E+00  0.3472222E-02
   1       -3.8259
   2       -2.6605
   3       -2.6236
   4       -2.6236
   5       -2.5273
   6       -2.4729
   7       -2.4729
   8       -1.0756
   9       -0.8309
  10       -0.8309
  11        0.0910
  12        0.2706
  13        0.7735
  14        0.7735
  15        0.9030
  16        0.9030
  17        1.0131
  18        1.1355
  19        1.1355
  20        1.3414
  21        1.3414
  22        4.1718
  23        6.5099
  24        6.5099
  25       11.4585
  26       11.4585
  27       13.4006
  28       14.4765
 
  0.2500000E+00  0.0000000E+00  0.0000000E+00  0.3472222E-02
   1       -3.4653
   2       -2.5161
   3       -2.4369
   4       -2.4369
   5       -2.4063
   6       -2.2804
   7       -2.2804
   8       -1.2229
   9       -0.6865
  10       -0.6865
  11       -0.0388
  12        0.2569
  13        0.2569
  14        0.3358
  15        0.7109
  16        0.7109
  17        0.9060
  18        0.9060
  19        0.9420
  20        1.3417
  21        1.3417
  22        2.9670
  23        7.3255
  24        7.3255
  25       11.5105
  26       11.5105
  27       13.5784
  28       13.5784
 
  0.3333333E+00  0.0000000E+00  0.0000000E+00  0.3472222E-02
   1       -3.0094
   2       -2.3533
   3       -2.2454
   4       -2.2215
   5       -2.2215
   6       -2.0130
   7       -2.0130
   8       -1.4099
   9       -0.4901
  10       -0.4901
  11       -0.2821
  12       -0.2821
  13       -0.1580
  14        0.4217
  15        0.4886
  16        0.4886
  17        0.6270
  18        0.6270
  19        0.8501
  20        1.3420
  21        1.3420
  22        1.8131
  23        8.2758
  24        8.2758
  25       11.5921
  26       11.5921
  27       12.5556
  28       12.5556
 
  0.4166667E+00  0.0000000E+00  0.0000000E+00  0.3472222E-02
   1       -2.5518
   2       -2.2314
   3       -2.0531
   4       -2.0363
   5       -2.0363
   6       -1.6733
   7       -1.6733
   8       -1.6212
   9       -0.7976
  10       -0.7976
  11       -0.2486
  12       -0.2486
  13       -0.1613
  14        0.2973
  15        0.2973
  16        0.3265
  17        0.3265
  18        0.5229
  19        0.7446
  20        0.8261
  21        1.3423
  22        1.3423
  23        9.3068
  24        9.3068
  25       11.4765
  26       11.4765
  27       11.6926
  28       11.6926
 
  0.5000000E+00  0.0000000E+00  0.0000000E+00  0.1736111E-02
   1       -2.2628
   2       -2.2628
   3       -1.9599
   4       -1.9599
   5       -1.8406
   6       -1.8406
   7       -1.2657
   8       -1.2657
   9       -1.2657
  10       -1.2657
  11        0.0283
  12        0.0283
  13        0.0283
  14        0.0283
  15        0.1338
  16        0.1338
  17        0.2185
  18        0.2185
  19        0.6330
  20        0.6330
  21        1.3423
  22        1.3423
  23       10.3832
  24       10.3832
  25       10.3832
  26       10.3832
  27       11.7489
  28       11.7489
 
  0.8333333E-01  0.8333333E-01  0.0000000E+00  0.6944444E-02
   1       -3.9766
   2       -2.7134
   3       -2.7134
   4       -2.7110
   5       -2.5640
   6       -2.5640
   7       -2.5449
   8       -0.9940
   9       -0.9084
  10       -0.8916
  11        0.1743
  12        0.2226
  13        0.9877
  14        0.9890
  15        0.9890
  16        1.0668
  17        1.1501
  18        1.1501
  19        1.2876
  20        1.2876
  21        1.3047
  22        5.4428
  23        5.4428
  24        6.1328
  25       11.4397
  26       12.0253
  27       12.0253
  28       14.2795
 
  0.1666667E+00  0.8333333E-01  0.0000000E+00  0.1388889E-01
   1       -3.7534
   2       -2.6164
   3       -2.6051
   4       -2.5889
   5       -2.4906
   6       -2.4496
   7       -2.4160
   8       -1.0764
   9       -0.8296
  10       -0.8106
  11        0.0947
  12        0.2604
  13        0.6668
  14        0.7053
  15        0.8571
  16        0.8662
  17        0.9416
  18        1.0800
  19        1.1350
  20        1.2861
  21        1.2873
  22        4.3844
  23        6.0021
  24        6.6953
  25       11.4649
  26       12.0785
  27       13.3081
  28       13.4261
 
  0.2500000E+00  0.8333333E-01  0.0000000E+00  0.1388889E-01
   1       -3.3985
   2       -2.4704
   3       -2.4367
   4       -2.4009
   5       -2.3721
   6       -2.2598
   7       -2.2132
   8       -1.2177
   9       -0.6874
  10       -0.6839
  11       -0.0218
  12        0.1704
  13        0.2168
  14        0.3339
  15        0.6359
  16        0.6815
  17        0.7372
  18        0.9049
  19        0.9873
  20        1.2824
  21        1.2868
  22        3.1933
  23        6.7612
  24        7.4880
  25       11.4924
  26       12.1707
  27       12.3592
  28       13.6987
 
  0.3333333E+00  0.8333333E-01  0.0000000E+00  0.1388889E-01
   1       -2.9502
   2       -2.3051
   3       -2.2246
   4       -2.2146
   5       -2.1836
   6       -1.9964
   7       -1.9537
   8       -1.3991
   9       -0.5445
  10       -0.4918
  11       -0.3509
  12       -0.3026
  13       -0.0933
  14        0.3475
  15        0.4332
  16        0.4675
  17        0.5090
  18        0.6255
  19        0.8728
  20        1.2821
  21        1.2861
  22        2.0758
  23        7.6223
  24        8.4209
  25       11.2014
  26       11.8049
  27       12.2831
  28       12.6737
 
  0.4166667E+00  0.8333333E-01  0.0000000E+00  0.1388889E-01
   1       -2.4987
   2       -2.1802
   3       -2.0266
   4       -2.0216
   5       -1.9973
   6       -1.6622
   7       -1.6474
   8       -1.6049
   9       -0.8436
  10       -0.8041
  11       -0.4541
  12       -0.2505
  13        0.0167
  14        0.0352
  15        0.2854
  16        0.3090
  17        0.3246
  18        0.5551
  19        0.7212
  20        1.1704
  21        1.2829
  22        1.2852
  23        8.5282
  24        9.4395
  25       10.3516
  26       11.5960
  27       11.8936
  28       12.2937
 
  0.5000000E+00  0.8333333E-01  0.0000000E+00  0.6944444E-02
   1       -2.2105
   2       -2.2105
   3       -1.9264
   4       -1.9264
   5       -1.8190
   6       -1.8190
   7       -1.2804
   8       -1.2804
   9       -1.2620
  10       -1.2620
  11       -0.2917
  12       -0.2917
  13        0.0263
  14        0.0263
  15        0.2181
  16        0.2181
  17        0.3883
  18        0.3883
  19        0.7162
  20        0.7162
  21        1.2841
  22        1.2841
  23        9.4443
  24        9.4443
  25       10.5076
  26       10.5076
  27       12.1031
  28       12.1031
 
  0.1666667E+00  0.1666667E+00  0.0000000E+00  0.6944444E-02
   1       -3.5406
   2       -2.5344
   3       -2.4893
   4       -2.4893
   5       -2.3808
   6       -2.3808
   7       -2.2659
   8       -1.1124
   9       -0.7901
  10       -0.7521
  11        0.0643
  12        0.2787
  13        0.4575
  14        0.4575
  15        0.4696
  16        0.7592
  17        0.9522
  18        0.9522
  19        1.1335
  20        1.1335
  21        1.1971
  22        4.9178
  23        4.9178
  24        7.2044
  25       11.4522
  26       12.1745
  27       13.4957
  28       13.4957
 
  0.2500000E+00  0.1666667E+00  0.0000000E+00  0.1388889E-01
   1       -3.2035
   2       -2.4001
   3       -2.3384
   4       -2.2966
   5       -2.2700
   6       -2.1990
   7       -2.0521
   8       -1.2177
   9       -0.6728
  10       -0.6703
  11       -0.0319
  12       -0.0171
  13        0.0828
  14        0.1932
  15        0.3735
  16        0.5948
  17        0.7627
  18        0.9020
  19        0.9026
  20        1.1311
  21        1.1485
  22        3.7283
  23        5.6179
  24        7.9439
  25       10.8821
  26       11.7135
  27       13.5375
  28       14.0484
 
  0.3333333E+00  0.1666667E+00  0.0000000E+00  0.1388889E-01
   1       -2.7792
   2       -2.2070
   3       -2.1653
   4       -2.1230
   5       -2.0730
   6       -1.9475
   7       -1.8061
   8       -1.3745
   9       -0.6209
  10       -0.5211
  11       -0.4881
  12       -0.3702
  13       -0.1059
  14       -0.0398
  15        0.4032
  16        0.5276
  17        0.5358
  18        0.6214
  19        0.7934
  20        1.1281
  21        1.1294
  22        2.6289
  23        6.3976
  24        8.8340
  25        9.8972
  26       11.8120
  27       13.0166
  28       13.2444
 
  0.4166667E+00  0.1666667E+00  0.0000000E+00  0.1388889E-01
   1       -2.3481
   2       -2.0319
   3       -1.9843
   4       -1.9483
   5       -1.8832
   6       -1.6300
   7       -1.5635
   8       -1.5600
   9       -0.9615
  10       -0.8267
  11       -0.6475
  12       -0.4052
  13       -0.2519
  14        0.1114
  15        0.2451
  16        0.3202
  17        0.3233
  18        0.6213
  19        0.7493
  20        1.1233
  21        1.1252
  22        1.7284
  23        7.2183
  24        8.9566
  25        9.8209
  26       11.9426
  27       12.0219
  28       12.7541
 
  0.5000000E+00  0.1666667E+00  0.0000000E+00  0.6944444E-02
   1       -2.0615
   2       -2.0615
   3       -1.8341
   4       -1.8341
   5       -1.7563
   6       -1.7563
   7       -1.3107
   8       -1.3107
   9       -1.2529
  10       -1.2529
  11       -0.6138
  12       -0.6138
  13        0.0226
  14        0.0226
  15        0.2061
  16        0.2061
  17        0.3771
  18        0.3771
  19        1.1084
  20        1.1084
  21        1.1230
  22        1.1230
  23        8.0689
  24        8.0689
  25       10.8671
  26       10.8671
  27       12.3339
  28       12.3339
 
  0.2500000E+00  0.2500000E+00  0.0000000E+00  0.6944444E-02
   1       -2.8981
   2       -2.3035
   3       -2.1370
   4       -2.1370
   5       -2.1016
   6       -2.1016
   7       -1.8376
   8       -1.2591
   9       -0.6457
  10       -0.6022
  11       -0.2860
  12       -0.2860
  13       -0.1635
  14       -0.0752
  15        0.4583
  16        0.5219
  17        0.7342
  18        0.7342
  19        0.8977
  20        0.8977
  21        1.0237
  22        4.4008
  23        4.4008
  24        8.6246
  25        9.7199
  26       11.7795
  27       14.5271
  28       14.5593
 
  0.3333333E+00  0.2500000E+00  0.0000000E+00  0.1388889E-01
   1       -2.5180
   2       -2.1448
   3       -1.9733
   4       -1.9500
   5       -1.9006
   6       -1.8702
   7       -1.6066
   8       -1.3583
   9       -0.7371
  10       -0.6587
  11       -0.5547
  12       -0.4999
  13       -0.4538
  14       -0.1043
  15        0.2961
  16        0.5176
  17        0.6165
  18        0.6344
  19        0.7708
  20        0.8934
  21        0.9470
  22        3.2823
  23        5.1398
  24        8.6356
  25        9.4636
  26       11.9524
  27       13.5542
  28       13.7644
 
  0.4166667E+00  0.2500000E+00  0.0000000E+00  0.1388889E-01
   1       -2.1285
   2       -1.9324
   3       -1.8224
   4       -1.8032
   5       -1.7028
   6       -1.5812
   7       -1.4991
   8       -1.4174
   9       -1.1129
  10       -0.8746
  11       -0.7862
  12       -0.7658
  13       -0.2385
  14        0.0125
  15        0.1667
  16        0.3001
  17        0.3170
  18        0.4615
  19        0.8911
  20        0.9094
  21        1.1229
  22        2.3429
  23        5.9240
  24        7.6528
  25       10.4102
  26       12.2209
  27       12.4852
  28       13.1152
 
  0.5000000E+00  0.2500000E+00  0.0000000E+00  0.6944444E-02
   1       -1.8437
   2       -1.8437
   3       -1.7160
   4       -1.7160
   5       -1.6597
   6       -1.6597
   7       -1.3126
   8       -1.3126
   9       -1.2440
  10       -1.2440
  11       -0.8646
  12       -0.8646
  13        0.0248
  14        0.0248
  15        0.1588
  16        0.1588
  17        0.2339
  18        0.2339
  19        0.8944
  20        0.8944
  21        1.6267
  22        1.6267
  23        6.7562
  24        6.7562
  25       11.4273
  26       11.4273
  27       12.6028
  28       12.6028
 
  0.3333333E+00  0.3333333E+00  0.0000000E+00  0.6944444E-02
   1       -2.2054
   2       -2.0302
   3       -1.7703
   4       -1.7703
   5       -1.6907
   6       -1.6907
   7       -1.3922
   8       -1.3779
   9       -0.9576
  10       -0.9576
  11       -0.7013
  12       -0.6805
  13       -0.3581
  14       -0.1958
  15        0.1603
  16        0.4266
  17        0.4266
  18        0.6141
  19        0.6141
  20        0.7939
  21        1.1302
  22        3.9903
  23        3.9903
  24        7.4955
  25       10.2544
  26       12.1819
  27       14.2472
  28       14.2491
 
  0.4166667E+00  0.3333333E+00  0.0000000E+00  0.1388889E-01
   1       -1.8925
   2       -1.8602
   3       -1.6571
   4       -1.5290
   5       -1.5228
   6       -1.4728
   7       -1.4433
   8       -1.2656
   9       -1.2299
  10       -1.1056
  11       -0.9606
  12       -0.7956
  13       -0.1876
  14       -0.1503
  15        0.0480
  16        0.2097
  17        0.2584
  18        0.3223
  19        0.6197
  20        0.6947
  21        1.5996
  22        3.0060
  23        4.7488
  24        6.4789
  25       11.1604
  26       12.5151
  27       13.1841
  28       13.5653
 
  0.5000000E+00  0.3333333E+00  0.0000000E+00  0.6944444E-02
   1       -1.6370
   2       -1.6370
   3       -1.6301
   4       -1.6301
   5       -1.5426
   6       -1.5426
   7       -1.2453
   8       -1.2453
   9       -1.2180
  10       -1.2180
  11       -0.9989
  12       -0.9989
  13        0.0405
  14        0.0405
  15        0.0466
  16        0.0466
  17        0.0558
  18        0.0558
  19        0.6421
  20        0.6421
  21        2.2122
  22        2.2122
  23        5.5710
  24        5.5710
  25       12.1465
  26       12.1465
  27       12.9709
  28       12.9709
 
  0.4166667E+00  0.4166667E+00  0.0000000E+00  0.6944444E-02
   1       -1.7545
   2       -1.6964
   3       -1.4660
   4       -1.4660
   5       -1.4169
   6       -1.4169
   7       -1.4151
   8       -1.2037
   9       -1.2037
  10       -1.0942
  11       -1.0627
  12       -0.8029
  13       -0.2534
  14       -0.0762
  15       -0.0755
  16        0.0466
  17        0.0466
  18        0.3473
  19        0.3473
  20        0.5217
  21        2.1747
  22        3.7287
  23        3.7287
  24        5.4418
  25       12.0300
  26       12.9213
  27       14.0010
  28       14.0012
 
  0.5000000E+00  0.4166667E+00  0.0000000E+00  0.6944444E-02
   1       -1.6043
   2       -1.6043
   3       -1.5485
   4       -1.5485
   5       -1.4250
   6       -1.4250
   7       -1.2697
   8       -1.2697
   9       -1.0393
  10       -1.0393
  11       -0.9549
  12       -0.9549
  13       -0.1506
  14       -0.1506
  15       -0.0969
  16       -0.0969
  17        0.1068
  18        0.1068
  19        0.4081
  20        0.4081
  21        2.8747
  22        2.8747
  23        4.5322
  24        4.5322
  25       12.9857
  26       12.9857
  27       13.4549
  28       13.4549
 
  0.5000000E+00  0.5000000E+00  0.0000000E+00  0.1736111E-02
   1       -1.5725
   2       -1.5725
   3       -1.5725
   4       -1.5725
   5       -1.3292
   6       -1.3292
   7       -1.3292
   8       -1.3292
   9       -0.9064
  10       -0.9064
  11       -0.9064
  12       -0.9064
  13       -0.2174
  14       -0.2174
  15       -0.2174
  16       -0.2174
  17        0.2250
  18        0.2250
  19        0.2250
  20        0.2250
  21        3.6391
  22        3.6391
  23        3.6391
  24        3.6391
  25       13.9129
  26       13.9129
  27       13.9129
  28       13.9129
 
  0.8333333E-01  0.8333333E-01  0.8333333E-01  0.4629630E-02
   1       -3.9021
   2       -2.6779
   3       -2.6779
   4       -2.6779
   5       -2.5197
   6       -2.5197
   7       -2.5197
   8       -1.0028
   9       -0.8834
  10       -0.8834
  11        0.1919
  12        0.1919
  13        0.9500
  14        0.9500
  15        0.9500
  16        1.0081
  17        1.0081
  18        1.0081
  19        1.2779
  20        1.2779
  21        1.2779
  22        5.6440
  23        5.6440
  24        5.6440
  25       12.0412
  26       12.0412
  27       12.0412
  28       14.4056
 
  0.1666667E+00  0.8333333E-01  0.8333333E-01  0.1388889E-01
   1       -3.6831
   2       -2.5833
   3       -2.5733
   4       -2.5733
   5       -2.4447
   6       -2.3904
   7       -2.3904
   8       -1.0728
   9       -0.8143
  10       -0.8087
  11        0.1078
  12        0.2436
  13        0.6211
  14        0.6211
  15        0.8373
  16        0.8394
  17        0.8562
  18        0.8562
  19        1.2052
  20        1.2610
  21        1.2610
  22        4.5771
  23        6.1750
  24        6.1750
  25       12.0840
  26       12.0840
  27       13.4388
  28       13.4388
 
  0.2500000E+00  0.8333333E-01  0.8333333E-01  0.1388889E-01
   1       -3.3356
   2       -2.4434
   3       -2.4061
   4       -2.4061
   5       -2.3216
   6       -2.1884
   7       -2.1884
   8       -1.2054
   9       -0.6885
  10       -0.6862
  11        0.0033
  12        0.1390
  13        0.1390
  14        0.3261
  15        0.5797
  16        0.6569
  17        0.6833
  18        0.6833
  19        1.1016
  20        1.2483
  21        1.2483
  22        3.3860
  23        6.9077
  24        6.9077
  25       12.0419
  26       12.0419
  27       12.6083
  28       12.6083
 
  0.3333333E+00  0.8333333E-01  0.8333333E-01  0.1388889E-01
   1       -2.8982
   2       -2.2867
   3       -2.1932
   4       -2.1932
   5       -2.1569
   6       -1.9335
   7       -1.9335
   8       -1.3785
   9       -0.5701
  10       -0.5192
  11       -0.3646
  12       -0.3646
  13       -0.0238
  14        0.2535
  15        0.4281
  16        0.4344
  17        0.4735
  18        0.4735
  19        0.9779
  20        1.2411
  21        1.2411
  22        2.2691
  23        7.7476
  24        7.7476
  25       11.3497
  26       11.3497
  27       12.5345
  28       12.5345
 
  0.4166667E+00  0.8333333E-01  0.8333333E-01  0.1388889E-01
   1       -2.4591
   2       -2.1619
   3       -1.9859
   4       -1.9859
   5       -1.9705
   6       -1.6415
   7       -1.6415
   8       -1.5743
   9       -0.8387
  10       -0.8387
  11       -0.5250
  12       -0.3132
  13       -0.1035
  14        0.1758
  15        0.1827
  16        0.2869
  17        0.2869
  18        0.5617
  19        0.8416
  20        1.2378
  21        1.2378
  22        1.3311
  23        8.6355
  24        8.6355
  25       10.4562
  26       10.4562
  27       12.7658
  28       12.7658
 
  0.5000000E+00  0.8333333E-01  0.8333333E-01  0.6944444E-02
   1       -2.1819
   2       -2.1819
   3       -1.8933
   4       -1.8933
   5       -1.7758
   6       -1.7758
   7       -1.3702
   8       -1.3702
   9       -1.1802
  10       -1.1802
  11       -0.4012
  12       -0.4012
  13       -0.0772
  14       -0.0772
  15        0.2084
  16        0.2084
  17        0.6349
  18        0.6349
  19        0.7002
  20        0.7002
  21        1.2368
  22        1.2368
  23        9.4502
  24        9.4502
  25        9.6418
  26        9.6418
  27       12.9488
  28       12.9488
 
  0.1666667E+00  0.1666667E+00  0.8333333E-01  0.1388889E-01
   1       -3.4772
   2       -2.5071
   3       -2.4843
   4       -2.4843
   5       -2.3129
   6       -2.3129
   7       -2.2380
   8       -1.0949
   9       -0.7815
  10       -0.7579
  11        0.0957
  12        0.2521
  13        0.4122
  14        0.4256
  15        0.4256
  16        0.6946
  17        0.7716
  18        0.7716
  19        1.1976
  20        1.1976
  21        1.2088
  22        5.0740
  23        5.0740
  24        6.6448
  25       11.9252
  26       12.4824
  27       13.3793
  28       13.3793
 
  0.2500000E+00  0.1666667E+00  0.8333333E-01  0.2777778E-01
   1       -3.1532
   2       -2.3767
   3       -2.3566
   4       -2.3223
   5       -2.1819
   6       -2.1113
   7       -2.0246
   8       -1.1838
   9       -0.6830
  10       -0.6782
  11       -0.0507
  12        0.0265
  13        0.0287
  14        0.1644
  15        0.3516
  16        0.5433
  17        0.5948
  18        0.6427
  19        1.1073
  20        1.1603
  21        1.1612
  22        3.8691
  23        5.7428
  24        7.3137
  25       11.0031
  26       12.4334
  27       12.6152
  28       13.8432
 
  0.3333333E+00  0.1666667E+00  0.8333333E-01  0.2777778E-01
   1       -2.7503
   2       -2.2168
   3       -2.1861
   4       -2.1085
   5       -2.0053
   6       -1.8682
   7       -1.7850
   8       -1.3226
   9       -0.6331
  10       -0.5354
  11       -0.5195
  12       -0.4125
  13       -0.1374
  14        0.0519
  15        0.3602
  16        0.3713
  17        0.4590
  18        0.5056
  19        0.9856
  20        1.1279
  21        1.1314
  22        2.7454
  23        6.4987
  24        8.0920
  25       10.0075
  26       11.6731
  27       12.6446
  28       14.0429
 
  0.4166667E+00  0.1666667E+00  0.8333333E-01  0.2777778E-01
   1       -2.3519
   2       -2.1018
   3       -1.9603
   4       -1.8859
   5       -1.8145
   6       -1.6244
   7       -1.5720
   8       -1.4829
   9       -0.9221
  10       -0.8278
  11       -0.6696
  12       -0.4395
  13       -0.3531
  14        0.1069
  15        0.2183
  16        0.2724
  17        0.2815
  18        0.7200
  19        0.8238
  20        1.1118
  21        1.1144
  22        1.7956
  23        7.3000
  24        8.7810
  25        9.2279
  26       10.7586
  27       12.9833
  28       13.9674
 
  0.5000000E+00  0.1666667E+00  0.8333333E-01  0.1388889E-01
   1       -2.1077
   2       -2.1077
   3       -1.8021
   4       -1.8021
   5       -1.6440
   6       -1.6440
   7       -1.4665
   8       -1.4665
   9       -1.0974
  10       -1.0974
  11       -0.6448
  12       -0.6448
  13       -0.1365
  14       -0.1365
  15        0.1710
  16        0.1710
  17        0.5962
  18        0.5962
  19        1.1024
  20        1.1024
  21        1.1080
  22        1.1080
  23        8.1272
  24        8.1272
  25        9.8772
  26        9.8772
  27       13.4473
  28       13.4473
 
  0.2500000E+00  0.2500000E+00  0.8333333E-01  0.1388889E-01
   1       -2.8718
   2       -2.2870
   3       -2.2077
   4       -2.2077
   5       -1.9756
   6       -1.9756
   7       -1.8122
   8       -1.1931
   9       -0.6550
  10       -0.6341
  11       -0.2944
  12       -0.2944
  13       -0.1994
  14       -0.0079
  15        0.3787
  16        0.4944
  17        0.5115
  18        0.5115
  19        1.0471
  20        1.0471
  21        1.0657
  22        4.5041
  23        4.5041
  24        7.8982
  25        9.8375
  26       12.5870
  27       13.1518
  28       13.1518
 
  0.3333333E+00  0.2500000E+00  0.8333333E-01  0.2777778E-01
   1       -2.5327
   2       -2.1356
   3       -2.0901
   4       -2.0028
   5       -1.7867
   6       -1.7417
   7       -1.5936
   8       -1.2540
   9       -0.7146
  10       -0.6651
  11       -0.5538
  12       -0.5293
  13       -0.5103
  14        0.0093
  15        0.2243
  16        0.3026
  17        0.3740
  18        0.7406
  19        0.9057
  20        0.9817
  21        0.9896
  22        3.3573
  23        5.2179
  24        8.3905
  25        8.9878
  26       12.1599
  27       12.8596
  28       13.8113
 
  0.4166667E+00  0.2500000E+00  0.8333333E-01  0.2777778E-01
   1       -2.2090
   2       -2.0012
   3       -1.9293
   4       -1.7605
   5       -1.5813
   6       -1.5810
   7       -1.4535
   8       -1.3402
   9       -1.0091
  10       -0.8180
  11       -0.7802
  12       -0.7732
  13       -0.3754
  14        0.0606
  15        0.1035
  16        0.1971
  17        0.2063
  18        0.7172
  19        0.9407
  20        0.9436
  21        1.0945
  22        2.3784
  23        5.9837
  24        7.6689
  25        9.5306
  26       11.2312
  27       13.2614
  28       14.4812
 
  0.5000000E+00  0.2500000E+00  0.8333333E-01  0.1388889E-01
   1       -2.0128
   2       -2.0128
   3       -1.7009
   4       -1.7009
   5       -1.5180
   6       -1.5180
   7       -1.4301
   8       -1.4301
   9       -1.0156
  10       -1.0156
  11       -0.8682
  12       -0.8682
  13       -0.1744
  14       -0.1744
  15        0.0887
  16        0.0887
  17        0.4703
  18        0.4703
  19        0.9281
  20        0.9281
  21        1.6205
  22        1.6205
  23        6.7996
  24        6.7996
  25       10.3546
  26       10.3546
  27       13.8047
  28       13.8047
 
  0.3333333E+00  0.3333333E+00  0.8333333E-01  0.1388889E-01
   1       -2.2880
   2       -2.0354
   3       -1.9159
   4       -1.9159
   5       -1.5445
   6       -1.5445
   7       -1.4072
   8       -1.2100
   9       -0.9077
  10       -0.9077
  11       -0.6724
  12       -0.6597
  13       -0.4950
  14       -0.0301
  15        0.0718
  16        0.2072
  17        0.2072
  18        0.8065
  19        0.8065
  20        0.8613
  21        1.0989
  22        4.0418
  23        4.0418
  24        7.4947
  25        9.4150
  26       12.7861
  27       12.7861
  28       13.1915
 
  0.4166667E+00  0.3333333E+00  0.8333333E-01  0.2777778E-01
   1       -2.0680
   2       -1.8862
   3       -1.8764
   4       -1.7236
   5       -1.4384
   6       -1.3272
   7       -1.3072
   8       -1.2016
   9       -1.0545
  10       -1.0511
  11       -0.8053
  12       -0.7804
  13       -0.3984
  14       -0.0413
  15       -0.0072
  16        0.0720
  17        0.0941
  18        0.5939
  19        0.7388
  20        0.7678
  21        1.5733
  22        3.0266
  23        4.7858
  24        6.4980
  25       10.1530
  26       11.8411
  27       13.5235
  28       13.6583
 
  0.5000000E+00  0.3333333E+00  0.8333333E-01  0.1388889E-01
   1       -1.9211
   2       -1.9211
   3       -1.7106
   4       -1.7106
   5       -1.4245
   6       -1.4245
   7       -1.1943
   8       -1.1943
   9       -0.9931
  10       -0.9931
  11       -0.9224
  12       -0.9224
  13       -0.2229
  14       -0.2229
  15       -0.0437
  16       -0.0437
  17        0.3404
  18        0.3404
  19        0.7251
  20        0.7251
  21        2.2037
  22        2.2037
  23        5.5985
  24        5.5985
  25       10.9663
  26       10.9663
  27       14.2691
  28       14.2692
 
  0.4166667E+00  0.4166667E+00  0.8333333E-01  0.1388889E-01
   1       -1.9488
   2       -1.8237
   3       -1.7707
   4       -1.7707
   5       -1.2747
   6       -1.2647
   7       -1.2647
   8       -1.1518
   9       -1.0001
  10       -1.0001
  11       -0.7716
  12       -0.7276
  13       -0.4187
  14       -0.1747
  15       -0.1110
  16       -0.1110
  17        0.1095
  18        0.5137
  19        0.5137
  20        0.6147
  21        2.1542
  22        3.7423
  23        3.7423
  24        5.4569
  25       10.8783
  26       12.5609
  27       12.5609
  28       14.1911
 
  0.5000000E+00  0.4166667E+00  0.8333333E-01  0.1388889E-01
   1       -1.8506
   2       -1.8506
   3       -1.7599
   4       -1.7599
   5       -1.3002
   6       -1.3002
   7       -1.1756
   8       -1.1756
   9       -0.8386
  10       -0.8386
  11       -0.8044
  12       -0.8044
  13       -0.3011
  14       -0.3011
  15       -0.2064
  16       -0.2064
  17        0.2809
  18        0.2809
  19        0.5202
  20        0.5202
  21        2.8677
  22        2.8677
  23        4.5444
  24        4.5444
  25       11.6818
  26       11.6818
  27       13.3733
  28       13.3733
 
  0.5000000E+00  0.5000000E+00  0.8333333E-01  0.3472222E-02
   1       -1.8027
   2       -1.8027
   3       -1.8027
   4       -1.8027
   5       -1.2244
   6       -1.2244
   7       -1.2244
   8       -1.2244
   9       -0.7165
  10       -0.7165
  11       -0.7165
  12       -0.7165
  13       -0.3350
  14       -0.3350
  15       -0.3350
  16       -0.3350
  17        0.3508
  18        0.3508
  19        0.3508
  20        0.3508
  21        3.6391
  22        3.6391
  23        3.6391
  24        3.6391
  25       12.4852
  26       12.4852
  27       12.4852
  28       12.4852
 
  0.1666667E+00  0.1666667E+00  0.1666667E+00  0.4629630E-02
   1       -3.2933
   2       -2.4321
   3       -2.4321
   4       -2.4321
   5       -2.1526
   6       -2.1526
   7       -2.1526
   8       -1.0681
   9       -0.7521
  10       -0.7521
  11        0.1845
  12        0.1845
  13        0.2488
  14        0.2488
  15        0.2488
  16        0.5355
  17        0.5355
  18        0.5355
  19        1.2144
  20        1.2144
  21        1.2144
  22        5.4951
  23        5.4951
  24        5.4951
  25       12.4295
  26       12.4295
  27       12.4295
  28       13.7783
 
  0.2500000E+00  0.1666667E+00  0.1666667E+00  0.1388889E-01