       N       E                     dE             d eps       ncg     rms          rms(c)
DAV:   1     0.494102022539E+03    0.49410E+03   -0.28143E+04  4712   0.221E+03
DAV:   2     0.408675157119E+01   -0.49002E+03   -0.46881E+03  4728   0.504E+02
DAV:   3    -0.118714475494E+02   -0.15958E+02   -0.15772E+02  5080   0.112E+02
DAV:   4    -0.119829420052E+02   -0.11149E+00   -0.11141E+00  5020   0.852E+00
DAV:   5    -0.119833484307E+02   -0.40643E-03   -0.40642E-03  4988   0.465E-01    0.609E+00
DAV:   6    -0.110223253615E+02    0.96102E+00   -0.30017E+00  4988   0.192E+01    0.119E+00
DAV:   7    -0.109804797966E+02    0.41846E-01   -0.68927E-02  4924   0.196E+00    0.530E-01
DAV:   8    -0.109649801926E+02    0.15500E-01   -0.48887E-03  4888   0.746E-01    0.395E-02
DAV:   9    -0.109651029436E+02   -0.12275E-03   -0.19280E-04  5040   0.119E-01    0.276E-02
DAV:  10    -0.109650751996E+02    0.27744E-04   -0.14342E-05  4876   0.310E-02    0.282E-03
DAV:  11    -0.109650734261E+02    0.17734E-05   -0.39011E-07  5060   0.441E-03    0.555E-04
DAV:  12    -0.109650730912E+02    0.33496E-06   -0.18127E-08  3976   0.109E-03    0.925E-05
DAV:  13    -0.109650729306E+02    0.16057E-06   -0.11689E-09  2568   0.291E-04    0.191E-05
DAV:  14    -0.109650728964E+02    0.34218E-07   -0.67944E-11  2520   0.896E-05    0.109E-05
DAV:  15    -0.109650728937E+02    0.26594E-08   -0.10635E-11  2540   0.397E-05
   1 F= -.10965073E+02 E0= -.10965003E+02  d E =-.139562E-03
