 vasp.4.6.28 25Jul05 complex 
 executed on             LinuxIFC date 2017.01.06  05:36:08
 running on    4 nodes
 distr:  one band on    1 nodes,    4 groups


--------------------------------------------------------------------------------------------------------


 INCAR:
 POTCAR:   PAW_PBE Ag 06Sep2000                   
 POTCAR:   PAW_PBE Ag 06Sep2000                   
   VRHFIN =Ag : s1 d10                                                          
   LEXCH  = PE                                                                  
   EATOM  =  1037.4134 eV,   76.2477 Ry                                         
                                                                                
   TITEL  = PAW_PBE Ag 06Sep2000                                                
   LULTRA =        F    use ultrasoft PP ?                                      
   IUNSCR =        1    unscreen: 0-lin 1-nonlin 2-no                           
   RPACOR =    2.000    partial core radius                                     
   POMASS =  107.868; ZVAL   =   11.000    mass and valenz                      
   RCORE  =    2.400    outmost cutoff radius                                   
   RWIGS  =    2.840; RWIGS  =    1.503    wigner-seitz radius (au A)           
   ENMAX  =  249.846; ENMIN  =  187.385 eV                                      
   RCLOC  =    1.962    cutoff for local pot                                    
   LCOR   =        T    correct aug charges                                     
   LPAW   =        T    paw PP                                                  
   EAUG   =  412.496                                                            
   DEXC   =    -.047                                                            
   RMAX   =    2.917    core radius for proj-oper                               
   RAUG   =    1.300    factor for augmentation sphere                          
   RDEP   =    2.416    radius for radial grids                                 
   QCUT   =   -4.285; QGAM   =    8.570    optimization parameters              
                                                                                
   Description                                                                  
     l     E      TYP  RCUT    TYP  RCUT                                        
     2   .000     23  2.400                                                     
     2   .000     23  2.400                                                     
     0   .000     23  2.400                                                     
     0   .000     23  2.400                                                     
     1  -.200     23  2.400                                                     
     1  1.500     23  2.400                                                     
     3   .000      7   .000                                                     
  local pseudopotential read in
  partial core-charges read in
  atomic valenz-charges read in
  non local Contribution for L=           2  read in
    real space projection operators read in
  non local Contribution for L=           2  read in
    real space projection operators read in
  non local Contribution for L=           0  read in
    real space projection operators read in
  non local Contribution for L=           0  read in
    real space projection operators read in
  non local Contribution for L=           1  read in
    real space projection operators read in
  non local Contribution for L=           1  read in
    real space projection operators read in
    PAW grid and wavefunctions read in
 
   number of l-projection  operators is LMAX  =           6
   number of lm-projection operators is LMMAX =          18
 
 PAW_PBE Ag 06Sep2000                   :
 energy of atom  1       EATOM=-1037.4134
 kinetic energy error for atom=    0.0010 (will be added to EATOM!!)
 
 EXHCAR: internal setup
 exchange correlation table for  LEXCH =        8
   RHO(1)=    0.500       N(1)  =     2000
   RHO(2)=  100.500       N(2)  =     4000
 
 POSCAR: Ag                                      
  positions in direct lattice
  velocities in cartesian coordinates
 


--------------------------------------------------------------------------------------------------------


 ion  position               nearest neighbor table
   1  0.000  0.000  0.000-   2 2.83   3 2.83   4 2.83   3 2.83   4 2.83   2 2.83   4 2.83   4 2.83
                             2 2.83   3 2.83   3 2.83   2 2.83
   2  0.500  0.500  0.000-   1 2.83   3 2.83   4 2.83   3 2.83   4 2.83   1 2.83   3 2.83   3 2.83
                             1 2.83   4 2.83   4 2.83   1 2.83
   3  0.500  0.000  0.500-   1 2.83   2 2.83   4 2.83   1 2.83   2 2.83   2 2.83   4 2.83   2 2.83
                             1 2.83   4 2.83   1 2.83   4 2.83
   4  0.000  0.500  0.500-   1 2.83   2 2.83   3 2.83   1 2.83   2 2.83   1 2.83   3 2.83   1 2.83
                             2 2.83   3 2.83   2 2.83   3 2.83
 
  LATTYP: Found a simple cubic cell.
 ALAT       =     3.9966957904
  
  Lattice vectors:
  
 A1 = (   3.9966957904,   0.0000000000,   0.0000000000)
 A2 = (   0.0000000000,   3.9966957904,   0.0000000000)
 A3 = (   0.0000000000,   0.0000000000,   3.9966957904)
 Subroutine PRICEL returns following result:
 
  LATTYP: Found a face centered cubic cell.
 ALAT       =     3.9966957904
  
  Lattice vectors:
  
 A1 = (   1.9983478952,   1.9983478952,  -0.0000000000)
 A2 = (   1.9983478952,   0.0000000000,  -1.9983478952)
 A3 = (   0.0000000000,   1.9983478952,  -1.9983478952)
 
   4 primitive cells build up your supercell.
 

Analysis of symmetry for initial positions (statically):

 Routine SETGRP: Setting up the symmetry group for a 
 simple cubic supercell.


 Subroutine GETGRP returns: Found 48 space group operations
 (whereof 48 operations were pure point group operations)
 out of a pool of 48 trial point group operations.


The static configuration has the point symmetry O_h .

Analysis of symmetry for dynamics (positions and initial velocities):

 Subroutine DYNSYM returns: Found 48 space group operations
 (whereof 48 operations were pure point group operations)
 out of a pool of 48 trial space group operations
 (whereof 48 operations were pure point group operations)
 and found also     4 'primitive' translations


The dynamic configuration has the point symmetry O_h .
 
 
 KPOINTS: Automatic mesh                          

Automatic generation of k-mesh.
 
 Subroutine IBZKPT returns following result:
 ===========================================
 
 Found     84 irreducible k-points:
 
 Following reciprocal coordinates:
            Coordinates               Weight
  0.000000  0.000000  0.000000      1.000000
  0.083333  0.000000  0.000000      6.000000
  0.166667  0.000000  0.000000      6.000000
  0.250000  0.000000  0.000000      6.000000
  0.333333  0.000000  0.000000      6.000000
  0.416667  0.000000  0.000000      6.000000
  0.500000  0.000000  0.000000      3.000000
  0.083333  0.083333  0.000000     12.000000
  0.166667  0.083333  0.000000     24.000000
  0.250000  0.083333  0.000000     24.000000
  0.333333  0.083333  0.000000     24.000000
  0.416667  0.083333  0.000000     24.000000
  0.500000  0.083333  0.000000     12.000000
  0.166667  0.166667  0.000000     12.000000
  0.250000  0.166667  0.000000     24.000000
  0.333333  0.166667  0.000000     24.000000
  0.416667  0.166667  0.000000     24.000000
  0.500000  0.166667  0.000000     12.000000
  0.250000  0.250000  0.000000     12.000000
  0.333333  0.250000  0.000000     24.000000
  0.416667  0.250000  0.000000     24.000000
  0.500000  0.250000  0.000000     12.000000
  0.333333  0.333333  0.000000     12.000000
  0.416667  0.333333  0.000000     24.000000
  0.500000  0.333333  0.000000     12.000000
  0.416667  0.416667  0.000000     12.000000
  0.500000  0.416667  0.000000     12.000000
  0.500000  0.500000  0.000000      3.000000
  0.083333  0.083333  0.083333      8.000000
  0.166667  0.083333  0.083333     24.000000
  0.250000  0.083333  0.083333     24.000000
  0.333333  0.083333  0.083333     24.000000
  0.416667  0.083333  0.083333     24.000000
  0.500000  0.083333  0.083333     12.000000
  0.166667  0.166667  0.083333     24.000000
  0.250000  0.166667  0.083333     48.000000
  0.333333  0.166667  0.083333     48.000000
  0.416667  0.166667  0.083333     48.000000
  0.500000  0.166667  0.083333     24.000000
  0.250000  0.250000  0.083333     24.000000
  0.333333  0.250000  0.083333     48.000000
  0.416667  0.250000  0.083333     48.000000
  0.500000  0.250000  0.083333     24.000000
  0.333333  0.333333  0.083333     24.000000
  0.416667  0.333333  0.083333     48.000000
  0.500000  0.333333  0.083333     24.000000
  0.416667  0.416667  0.083333     24.000000
  0.500000  0.416667  0.083333     24.000000
  0.500000  0.500000  0.083333      6.000000
  0.166667  0.166667  0.166667      8.000000
  0.250000  0.166667  0.166667     24.000000
  0.333333  0.166667  0.166667     24.000000
  0.416667  0.166667  0.166667     24.000000
  0.500000  0.166667  0.166667     12.000000
  0.250000  0.250000  0.166667     24.000000
  0.333333  0.250000  0.166667     48.000000
  0.416667  0.250000  0.166667     48.000000
  0.500000  0.250000  0.166667     24.000000
  0.333333  0.333333  0.166667     24.000000
  0.416667  0.333333  0.166667     48.000000
  0.500000  0.333333  0.166667     24.000000
  0.416667  0.416667  0.166667     24.000000
  0.500000  0.416667  0.166667     24.000000
  0.500000  0.500000  0.166667      6.000000
  0.250000  0.250000  0.250000      8.000000
  0.333333  0.250000  0.250000     24.000000
  0.416667  0.250000  0.250000     24.000000
  0.500000  0.250000  0.250000     12.000000
  0.333333  0.333333  0.250000     24.000000
  0.416667  0.333333  0.250000     48.000000
  0.500000  0.333333  0.250000     24.000000
  0.416667  0.416667  0.250000     24.000000
  0.500000  0.416667  0.250000     24.000000
  0.500000  0.500000  0.250000      6.000000
  0.333333  0.333333  0.333333      8.000000
  0.416667  0.333333  0.333333     24.000000
  0.500000  0.333333  0.333333     12.000000
  0.416667  0.416667  0.333333     24.000000
  0.500000  0.416667  0.333333     24.000000
  0.500000  0.500000  0.333333      6.000000
  0.416667  0.416667  0.416667      8.000000
  0.500000  0.416667  0.416667     12.000000
  0.500000  0.500000  0.416667      6.000000
  0.500000  0.500000  0.500000      1.000000
 
 Following cartesian coordinates:
            Coordinates               Weight
  0.000000  0.000000  0.000000      1.000000
  0.020017  0.000000  0.000000      6.000000
  0.040033  0.000000  0.000000      6.000000
  0.060050  0.000000  0.000000      6.000000
  0.080066  0.000000  0.000000      6.000000
  0.100083  0.000000  0.000000      6.000000
  0.120099  0.000000  0.000000      3.000000
  0.020017  0.020017  0.000000     12.000000
  0.040033  0.020017  0.000000     24.000000
  0.060050  0.020017  0.000000     24.000000
  0.080066  0.020017  0.000000     24.000000
  0.100083  0.020017  0.000000     24.000000
  0.120099  0.020017  0.000000     12.000000
  0.040033  0.040033  0.000000     12.000000
  0.060050  0.040033  0.000000     24.000000
  0.080066  0.040033  0.000000     24.000000
  0.100083  0.040033  0.000000     24.000000
  0.120099  0.040033  0.000000     12.000000
  0.060050  0.060050  0.000000     12.000000
  0.080066  0.060050  0.000000     24.000000
  0.100083  0.060050  0.000000     24.000000
  0.120099  0.060050  0.000000     12.000000
  0.080066  0.080066  0.000000     12.000000
  0.100083  0.080066  0.000000     24.000000
  0.120099  0.080066  0.000000     12.000000
  0.100083  0.100083  0.000000     12.000000
  0.120099  0.100083  0.000000     12.000000
  0.120099  0.120099  0.000000      3.000000
  0.020017  0.020017  0.020017      8.000000
  0.040033  0.020017  0.020017     24.000000
  0.060050  0.020017  0.020017     24.000000
  0.080066  0.020017  0.020017     24.000000
  0.100083  0.020017  0.020017     24.000000
  0.120099  0.020017  0.020017     12.000000
  0.040033  0.040033  0.020017     24.000000
  0.060050  0.040033  0.020017     48.000000
  0.080066  0.040033  0.020017     48.000000
  0.100083  0.040033  0.020017     48.000000
  0.120099  0.040033  0.020017     24.000000
  0.060050  0.060050  0.020017     24.000000
  0.080066  0.060050  0.020017     48.000000
  0.100083  0.060050  0.020017     48.000000
  0.120099  0.060050  0.020017     24.000000
  0.080066  0.080066  0.020017     24.000000
  0.100083  0.080066  0.020017     48.000000
  0.120099  0.080066  0.020017     24.000000
  0.100083  0.100083  0.020017     24.000000
  0.120099  0.100083  0.020017     24.000000
  0.120099  0.120099  0.020017      6.000000
  0.040033  0.040033  0.040033      8.000000
  0.060050  0.040033  0.040033     24.000000
  0.080066  0.040033  0.040033     24.000000
  0.100083  0.040033  0.040033     24.000000
  0.120099  0.040033  0.040033     12.000000
  0.060050  0.060050  0.040033     24.000000
  0.080066  0.060050  0.040033     48.000000
  0.100083  0.060050  0.040033     48.000000
  0.120099  0.060050  0.040033     24.000000
  0.080066  0.080066  0.040033     24.000000
  0.100083  0.080066  0.040033     48.000000
  0.120099  0.080066  0.040033     24.000000
  0.100083  0.100083  0.040033     24.000000
  0.120099  0.100083  0.040033     24.000000
  0.120099  0.120099  0.040033      6.000000
  0.060050  0.060050  0.060050      8.000000
  0.080066  0.060050  0.060050     24.000000
  0.100083  0.060050  0.060050     24.000000
  0.120099  0.060050  0.060050     12.000000
  0.080066  0.080066  0.060050     24.000000
  0.100083  0.080066  0.060050     48.000000
  0.120099  0.080066  0.060050     24.000000
  0.100083  0.100083  0.060050     24.000000
  0.120099  0.100083  0.060050     24.000000
  0.120099  0.120099  0.060050      6.000000
  0.080066  0.080066  0.080066      8.000000
  0.100083  0.080066  0.080066     24.000000
  0.120099  0.080066  0.080066     12.000000
  0.100083  0.100083  0.080066     24.000000
  0.120099  0.100083  0.080066     24.000000
  0.120099  0.120099  0.080066      6.000000
  0.100083  0.100083  0.100083      8.000000
  0.120099  0.100083  0.100083     12.000000
  0.120099  0.120099  0.100083      6.000000
  0.120099  0.120099  0.120099      1.000000
 


--------------------------------------------------------------------------------------------------------




 Dimension of arrays:
   k-Points           NKPTS =     84   number of bands    NBANDS=     28
   number of dos      NEDOS =    301   number of ions     NIONS =      4
   non local maximal  LDIM  =      6   non local SUM 2l+1 LMDIM =     18
   total plane-waves  NPLWV =  46656
   max r-space proj   IRMAX =      1   max aug-charges    IRDMAX= 287630
   dimension x,y,z NGX =    36 NGY =   36 NGZ =   36
   dimension x,y,z NGXF=    72 NGYF=   72 NGZF=   72
   support grid    NGXF=   144 NGYF=  144 NGZF=  144
   ions per type =               4
 NGX,Y,Z   is equivalent  to a cutoff of  14.97, 14.97, 14.97 a.u.
 NGXF,Y,Z  is equivalent  to a cutoff of  29.95, 29.95, 29.95 a.u.


 I would recommend the setting:
   dimension x,y,z NGX =    36 NGY =   36 NGZ =   36
 SYSTEM =  unknown system                          
 POSCAR =  Ag                                      

 Startparameter for this run:
   NWRITE =      2    write-flag & timer
   PREC   = accura    medium, high low
   ISTART =      0    job   : 0-new  1-cont  2-samecut
   ICHARG =      2    charge: 1-file 2-atom 10-const
   ISPIN  =      1    spin polarized calculation?
   LNONCOLLINEAR =      F non collinear calculations
   LSORBIT =      F    spin-orbit coupling
   INIWAV =      1    electr: 0-lowe 1-rand  2-diag
   LASPH  =      F    aspherical Exc in radial PAW
   METAGGA=      F    non-selfconsistent MetaGGA calc.

 Electronic Relaxation 1
   ENCUT  =  750.0 eV  55.12 Ry    7.42 a.u.   8.92  8.92  8.92*2*pi/ulx,y,z
   ENINI  =  750.0     initial cutoff
   ENAUG  =  412.5 eV  augmentation charge cutoff
   NELM   =     60;   NELMIN=  2; NELMDL= -5     # of ELM steps 
   EDIFF  = 0.1E-07   stopping-criterion for ELM
   LREAL  =      F    real-space projection
   LCOMPAT=      F    compatible to vasp.4.4
   LREAL_COMPAT= F    compatible to vasp.4.5.1-3
   GGA_COMPAT  = T    GGA compatible to vasp.4.4-vasp.4.6
   LMAXPAW     = -100 max onsite density
   LMAXMIX     =    2 max onsite mixed and CHGCAR
   VOSKOWN=      0    Vosko Wilk Nusair interpolation
   ROPT   =    0.00000
 Ionic relaxation
   EDIFFG = 0.1E-06   stopping-criterion for IOM
   NSW    =      0    number of steps for IOM
   NBLOCK =      1;   KBLOCK =      1    inner block; outer block 
   IBRION =     -1    ionic relax: 0-MD 1-quasi-New 2-CG
   NFREE  =      0    steps in history (QN), initial steepest desc. (CG)
   ISIF   =      2    stress and relaxation
   IWAVPR =     10    prediction:  0-non 1-charg 2-wave 3-comb
   ISYM   =      2    0-nonsym 1-usesym 2-fastsym
   LCORR  =      T    Harris-Foulkes like correction to forces

   POTIM  =   0.50    time-step for ionic-motion
   TEIN   =    0.0    initial temperature
   TEBEG  =    0.0;   TEEND  =   0.0 temperature during run
   SMASS  =  -3.00    Nose mass-parameter (am)
   estimated Nose-frequenzy (Omega)   =  0.10E-29 period in steps =****** mass=  -0.365E-27a.u.
   NPACO  =    256;   APACO  = 16.0  distance and # of slots for P.C.
   PSTRESS=    0.0 pullay stress

  Mass of Ions in am
   POMASS = 107.87
  Ionic Valenz
   ZVAL   =  11.00
  Atomic Wigner-Seitz radii
   RWIGS  =  -1.00
   NELECT =      44.0000    total number of electrons
   NUPDOWN=      -1.0000    fix difference up-down

 DOS related values:
   EMIN   =  10.00;   EMAX   =-10.00  energy-range for DOS
   ISMEAR =     0;   SIGMA  =   0.01  broadening in eV -4-tet -1-fermi 0-gaus

 Electronic relaxation 2 (details)
   IALGO  =     38    algorithm
   LDIAG  =      T    sub-space diagonalisation
   IMIX   =      4    mixing-type and parameters
     AMIX     =   0.40;   BMIX     =  1.00
     AMIX_MAG =   1.60;   BMIX_MAG =  1.00
     AMIN     =   0.10
     WC   =   100.;   INIMIX=   1;  MIXPRE=   1

 Intra band minimization:
   WEIMIN = 0.0000     energy-eigenvalue tresh-hold
   EBREAK =  0.96E-10  absolut break condition
   DEPER  =   0.30     relativ break condition  

   TIME   =   0.10     timestep for ELM

  volume/ion in A,a.u.               =      15.96       107.71
  Fermi-wavevector in a.u.,eV,Ry     =   1.446077 28.451653  2.091138

 Second variation
   LSECVAR=     F    do a second variation
 
 Write flags
   LWAVE  =      F    write WAVECAR
   LCHARG =      F    write CHGCAR
   LVTOT  =      F    write LOCPOT, local potential
   LELF   =      F    write electronic localiz. function (ELF)
   LORBIT =      0    0 simple, 1 ext, 2 COOP (PROOUT)


 Dipole corrections
   IDIPOL =      0    1-x, 2-y, 3-z
   LDIPOL =      F    correct potential



--------------------------------------------------------------------------------------------------------


 Static calculation
 charge density will be updated during run
 non-spin polarized calculation
 Variant of blocked Davidson
 Davidson routine will perform the subspace rotation
 performe sub-space diagonalisation
    after iterative eigenvector-optimisation
 modified Broyden-mixing scheme, WC =      100.0
 initial mixing is a Kerker type mixing with AMIX =  0.4000 and BMIX =      1.0000
 Hartree-type preconditioning will be used
 using additional bands            6
 reciprocal scheme for non local part
 use partial core corrections
 calculate Harris-corrections to forces 
   (improved forces if not selfconsistent)
 use gradient corrections 
 use of overlap-Matrix (Vanderbilt PP)
 Gauss-broadening in eV      SIGMA  =   0.01


--------------------------------------------------------------------------------------------------------


  energy-cutoff  :      750.00
  volume of cell :       63.84
      direct lattice vectors                 reciprocal lattice vectors
     3.996695790  0.000000000  0.000000000     0.250206684  0.000000000  0.000000000
     0.000000000  3.996695790  0.000000000     0.000000000  0.250206684  0.000000000
     0.000000000  0.000000000  3.996695790     0.000000000  0.000000000  0.250206684

  length of vectors
     3.996695790  3.996695790  3.996695790     0.250206684  0.250206684  0.250206684


 
 k-points in units of 2pi/SCALE and weight: Automatic mesh                          
   0.00000000  0.00000000  0.00000000       0.001
   0.02001653  0.00000000  0.00000000       0.003
   0.04003307  0.00000000  0.00000000       0.003
   0.06004960  0.00000000  0.00000000       0.003
   0.08006614  0.00000000  0.00000000       0.003
   0.10008267  0.00000000  0.00000000       0.003
   0.12009921  0.00000000  0.00000000       0.002
   0.02001653  0.02001653  0.00000000       0.007
   0.04003307  0.02001653  0.00000000       0.014
   0.06004960  0.02001653  0.00000000       0.014
   0.08006614  0.02001653  0.00000000       0.014
   0.10008267  0.02001653  0.00000000       0.014
   0.12009921  0.02001653  0.00000000       0.007
   0.04003307  0.04003307  0.00000000       0.007
   0.06004960  0.04003307  0.00000000       0.014
   0.08006614  0.04003307  0.00000000       0.014
   0.10008267  0.04003307  0.00000000       0.014
   0.12009921  0.04003307  0.00000000       0.007
   0.06004960  0.06004960  0.00000000       0.007
   0.08006614  0.06004960  0.00000000       0.014
   0.10008267  0.06004960  0.00000000       0.014
   0.12009921  0.06004960  0.00000000       0.007
   0.08006614  0.08006614  0.00000000       0.007
   0.10008267  0.08006614  0.00000000       0.014
   0.12009921  0.08006614  0.00000000       0.007
   0.10008267  0.10008267  0.00000000       0.007
   0.12009921  0.10008267  0.00000000       0.007
   0.12009921  0.12009921  0.00000000       0.002
   0.02001653  0.02001653  0.02001653       0.005
   0.04003307  0.02001653  0.02001653       0.014
   0.06004960  0.02001653  0.02001653       0.014
   0.08006614  0.02001653  0.02001653       0.014
   0.10008267  0.02001653  0.02001653       0.014
   0.12009921  0.02001653  0.02001653       0.007
   0.04003307  0.04003307  0.02001653       0.014
   0.06004960  0.04003307  0.02001653       0.028
   0.08006614  0.04003307  0.02001653       0.028
   0.10008267  0.04003307  0.02001653       0.028
   0.12009921  0.04003307  0.02001653       0.014
   0.06004960  0.06004960  0.02001653       0.014
   0.08006614  0.06004960  0.02001653       0.028
   0.10008267  0.06004960  0.02001653       0.028
   0.12009921  0.06004960  0.02001653       0.014
   0.08006614  0.08006614  0.02001653       0.014
   0.10008267  0.08006614  0.02001653       0.028
   0.12009921  0.08006614  0.02001653       0.014
   0.10008267  0.10008267  0.02001653       0.014
   0.12009921  0.10008267  0.02001653       0.014
   0.12009921  0.12009921  0.02001653       0.003
   0.04003307  0.04003307  0.04003307       0.005
   0.06004960  0.04003307  0.04003307       0.014
   0.08006614  0.04003307  0.04003307       0.014
   0.10008267  0.04003307  0.04003307       0.014
   0.12009921  0.04003307  0.04003307       0.007
   0.06004960  0.06004960  0.04003307       0.014
   0.08006614  0.06004960  0.04003307       0.028
   0.10008267  0.06004960  0.04003307       0.028
   0.12009921  0.06004960  0.04003307       0.014
   0.08006614  0.08006614  0.04003307       0.014
   0.10008267  0.08006614  0.04003307       0.028
   0.12009921  0.08006614  0.04003307       0.014
   0.10008267  0.10008267  0.04003307       0.014
   0.12009921  0.10008267  0.04003307       0.014
   0.12009921  0.12009921  0.04003307       0.003
   0.06004960  0.06004960  0.06004960       0.005
   0.08006614  0.06004960  0.06004960       0.014
   0.10008267  0.06004960  0.06004960       0.014
   0.12009921  0.06004960  0.06004960       0.007
   0.08006614  0.08006614  0.06004960       0.014
   0.10008267  0.08006614  0.06004960       0.028
   0.12009921  0.08006614  0.06004960       0.014
   0.10008267  0.10008267  0.06004960       0.014
   0.12009921  0.10008267  0.06004960       0.014
   0.12009921  0.12009921  0.06004960       0.003
   0.08006614  0.08006614  0.08006614       0.005
   0.10008267  0.08006614  0.08006614       0.014
   0.12009921  0.08006614  0.08006614       0.007
   0.10008267  0.10008267  0.08006614       0.014
   0.12009921  0.10008267  0.08006614       0.014
   0.12009921  0.12009921  0.08006614       0.003
   0.10008267  0.10008267  0.10008267       0.005
   0.12009921  0.10008267  0.10008267       0.007
   0.12009921  0.12009921  0.10008267       0.003
   0.12009921  0.12009921  0.12009921       0.001
 
 k-points in reciprocal lattice and weights: Automatic mesh                          
   0.00000000  0.00000000  0.00000000       0.001
   0.08333333  0.00000000  0.00000000       0.003
   0.16666667  0.00000000  0.00000000       0.003
   0.25000000  0.00000000  0.00000000       0.003
   0.33333333  0.00000000  0.00000000       0.003
   0.41666667  0.00000000  0.00000000       0.003
   0.50000000  0.00000000  0.00000000       0.002
   0.08333333  0.08333333  0.00000000       0.007
   0.16666667  0.08333333  0.00000000       0.014
   0.25000000  0.08333333  0.00000000       0.014
   0.33333333  0.08333333  0.00000000       0.014
   0.41666667  0.08333333  0.00000000       0.014
   0.50000000  0.08333333  0.00000000       0.007
   0.16666667  0.16666667  0.00000000       0.007
   0.25000000  0.16666667  0.00000000       0.014
   0.33333333  0.16666667  0.00000000       0.014
   0.41666667  0.16666667  0.00000000       0.014
   0.50000000  0.16666667  0.00000000       0.007
   0.25000000  0.25000000  0.00000000       0.007
   0.33333333  0.25000000  0.00000000       0.014
   0.41666667  0.25000000  0.00000000       0.014
   0.50000000  0.25000000  0.00000000       0.007
   0.33333333  0.33333333  0.00000000       0.007
   0.41666667  0.33333333  0.00000000       0.014
   0.50000000  0.33333333  0.00000000       0.007
   0.41666667  0.41666667  0.00000000       0.007
   0.50000000  0.41666667  0.00000000       0.007
   0.50000000  0.50000000  0.00000000       0.002
   0.08333333  0.08333333  0.08333333       0.005
   0.16666667  0.08333333  0.08333333       0.014
   0.25000000  0.08333333  0.08333333       0.014
   0.33333333  0.08333333  0.08333333       0.014
   0.41666667  0.08333333  0.08333333       0.014
   0.50000000  0.08333333  0.08333333       0.007
   0.16666667  0.16666667  0.08333333       0.014
   0.25000000  0.16666667  0.08333333       0.028
   0.33333333  0.16666667  0.08333333       0.028
   0.41666667  0.16666667  0.08333333       0.028
   0.50000000  0.16666667  0.08333333       0.014
   0.25000000  0.25000000  0.08333333       0.014
   0.33333333  0.25000000  0.08333333       0.028
   0.41666667  0.25000000  0.08333333       0.028
   0.50000000  0.25000000  0.08333333       0.014
   0.33333333  0.33333333  0.08333333       0.014
   0.41666667  0.33333333  0.08333333       0.028
   0.50000000  0.33333333  0.08333333       0.014
   0.41666667  0.41666667  0.08333333       0.014
   0.50000000  0.41666667  0.08333333       0.014
   0.50000000  0.50000000  0.08333333       0.003
   0.16666667  0.16666667  0.16666667       0.005
   0.25000000  0.16666667  0.16666667       0.014
   0.33333333  0.16666667  0.16666667       0.014
   0.41666667  0.16666667  0.16666667       0.014
   0.50000000  0.16666667  0.16666667       0.007
   0.25000000  0.25000000  0.16666667       0.014
   0.33333333  0.25000000  0.16666667       0.028
   0.41666667  0.25000000  0.16666667       0.028
   0.50000000  0.25000000  0.16666667       0.014
   0.33333333  0.33333333  0.16666667       0.014
   0.41666667  0.33333333  0.16666667       0.028
   0.50000000  0.33333333  0.16666667       0.014
   0.41666667  0.41666667  0.16666667       0.014
   0.50000000  0.41666667  0.16666667       0.014
   0.50000000  0.50000000  0.16666667       0.003
   0.25000000  0.25000000  0.25000000       0.005
   0.33333333  0.25000000  0.25000000       0.014
   0.41666667  0.25000000  0.25000000       0.014
   0.50000000  0.25000000  0.25000000       0.007
   0.33333333  0.33333333  0.25000000       0.014
   0.41666667  0.33333333  0.25000000       0.028
   0.50000000  0.33333333  0.25000000       0.014
   0.41666667  0.41666667  0.25000000       0.014
   0.50000000  0.41666667  0.25000000       0.014
   0.50000000  0.50000000  0.25000000       0.003
   0.33333333  0.33333333  0.33333333       0.005
   0.41666667  0.33333333  0.33333333       0.014
   0.50000000  0.33333333  0.33333333       0.007
   0.41666667  0.41666667  0.33333333       0.014
   0.50000000  0.41666667  0.33333333       0.014
   0.50000000  0.50000000  0.33333333       0.003
   0.41666667  0.41666667  0.41666667       0.005
   0.50000000  0.41666667  0.41666667       0.007
   0.50000000  0.50000000  0.41666667       0.003
   0.50000000  0.50000000  0.50000000       0.001
 
 position of ions in fractional coordinates (direct lattice) 
   0.00000000  0.00000000  0.00000000
   0.50000000  0.50000000  0.00000000
   0.50000000  0.00000000  0.50000000
   0.00000000  0.50000000  0.50000000
 
 position of ions in cartesian coordinates  (Angst):
   0.00000000  0.00000000  0.00000000
   1.99834790  1.99834790  0.00000000
   1.99834790  0.00000000  1.99834790
   0.00000000  1.99834790  1.99834790
 


--------------------------------------------------------------------------------------------------------


 k-point  1 :  0.00000.00000.0000  plane waves:   2945
 k-point  2 :  0.08330.00000.0000  plane waves:   2954
 k-point  3 :  0.16670.00000.0000  plane waves:   2958
 k-point  4 :  0.25000.00000.0000  plane waves:   2982
 k-point  5 :  0.33330.00000.0000  plane waves:   2962
 k-point  6 :  0.41670.00000.0000  plane waves:   2942
 k-point  7 :  0.50000.00000.0000  plane waves:   2946
 k-point  8 :  0.08330.08330.0000  plane waves:   2973
 k-point  9 :  0.16670.08330.0000  plane waves:   2972
 k-point 10 :  0.25000.08330.0000  plane waves:   2973
 k-point 11 :  0.33330.08330.0000  plane waves:   2976
 k-point 12 :  0.41670.08330.0000  plane waves:   2964
 k-point 13 :  0.50000.08330.0000  plane waves:   2960
 k-point 14 :  0.16670.16670.0000  plane waves:   2965
 k-point 15 :  0.25000.16670.0000  plane waves:   2984
 k-point 16 :  0.33330.16670.0000  plane waves:   2980
 k-point 17 :  0.41670.16670.0000  plane waves:   2971
 k-point 18 :  0.50000.16670.0000  plane waves:   2974
 k-point 19 :  0.25000.25000.0000  plane waves:   3003
 k-point 20 :  0.33330.25000.0000  plane waves:   2968
 k-point 21 :  0.41670.25000.0000  plane waves:   2971
 k-point 22 :  0.50000.25000.0000  plane waves:   2970
 k-point 23 :  0.33330.33330.0000  plane waves:   2984
 k-point 24 :  0.41670.33330.0000  plane waves:   2982
 k-point 25 :  0.50000.33330.0000  plane waves:   2974
 k-point 26 :  0.41670.41670.0000  plane waves:   2978
 k-point 27 :  0.50000.41670.0000  plane waves:   2994
 k-point 28 :  0.50000.50000.0000  plane waves:   3016
 k-point 29 :  0.08330.08330.0833  plane waves:   2969
 k-point 30 :  0.16670.08330.0833  plane waves:   2975
 k-point 31 :  0.25000.08330.0833  plane waves:   2977
 k-point 32 :  0.33330.08330.0833  plane waves:   2972
 k-point 33 :  0.41670.08330.0833  plane waves:   2960
 k-point 34 :  0.50000.08330.0833  plane waves:   2956
 k-point 35 :  0.16670.16670.0833  plane waves:   2979
 k-point 36 :  0.25000.16670.0833  plane waves:   2976
 k-point 37 :  0.33330.16670.0833  plane waves:   2981
 k-point 38 :  0.41670.16670.0833  plane waves:   2973
 k-point 39 :  0.50000.16670.0833  plane waves:   2966
 k-point 40 :  0.25000.25000.0833  plane waves:   2978
 k-point 41 :  0.33330.25000.0833  plane waves:   2977
 k-point 42 :  0.41670.25000.0833  plane waves:   2974
 k-point 43 :  0.50000.25000.0833  plane waves:   2964
 k-point 44 :  0.33330.33330.0833  plane waves:   2972
 k-point 45 :  0.41670.33330.0833  plane waves:   2977
 k-point 46 :  0.50000.33330.0833  plane waves:   2984
 k-point 47 :  0.41670.41670.0833  plane waves:   2980
 k-point 48 :  0.50000.41670.0833  plane waves:   2990
 k-point 49 :  0.50000.50000.0833  plane waves:   2992
 k-point 50 :  0.16670.16670.1667  plane waves:   2995
 k-point 51 :  0.25000.16670.1667  plane waves:   2984
 k-point 52 :  0.33330.16670.1667  plane waves:   2977
 k-point 53 :  0.41670.16670.1667  plane waves:   2971
 k-point 54 :  0.50000.16670.1667  plane waves:   2976
 k-point 55 :  0.25000.25000.1667  plane waves:   2974
 k-point 56 :  0.33330.25000.1667  plane waves:   2972
 k-point 57 :  0.41670.25000.1667  plane waves:   2969
 k-point 58 :  0.50000.25000.1667  plane waves:   2972
 k-point 59 :  0.33330.33330.1667  plane waves:   2975
 k-point 60 :  0.41670.33330.1667  plane waves:   2985
 k-point 61 :  0.50000.33330.1667  plane waves:   2978
 k-point 62 :  0.41670.41670.1667  plane waves:   2989
 k-point 63 :  0.50000.41670.1667  plane waves:   2996
 k-point 64 :  0.50000.50000.1667  plane waves:   2980
 k-point 65 :  0.25000.25000.2500  plane waves:   2968
 k-point 66 :  0.33330.25000.2500  plane waves:   2984
 k-point 67 :  0.41670.25000.2500  plane waves:   2981
 k-point 68 :  0.50000.25000.2500  plane waves:   2972
 k-point 69 :  0.33330.33330.2500  plane waves:   2988
 k-point 70 :  0.41670.33330.2500  plane waves:   2989
 k-point 71 :  0.50000.33330.2500  plane waves:   2988
 k-point 72 :  0.41670.41670.2500  plane waves:   2988
 k-point 73 :  0.50000.41670.2500  plane waves:   2990
 k-point 74 :  0.50000.50000.2500  plane waves:   3000
 k-point 75 :  0.33330.33330.3333  plane waves:   2983
 k-point 76 :  0.41670.33330.3333  plane waves:   2996
 k-point 77 :  0.50000.33330.3333  plane waves:   2992
 k-point 78 :  0.41670.41670.3333  plane waves:   2999
 k-point 79 :  0.50000.41670.3333  plane waves:   2988
 k-point 80 :  0.50000.50000.3333  plane waves:   3008
 k-point 81 :  0.41670.41670.4167  plane waves:   2998
 k-point 82 :  0.50000.41670.4167  plane waves:   2996
 k-point 83 :  0.50000.50000.4167  plane waves:   2996
 k-point 84 :  0.50000.50000.5000  plane waves:   3016

 maximum and minimum number of plane-waves per node :   3016  2942

 maximum number of plane-waves:   3016
 maximal index in each direction: 
   IXMAX=  8   IYMAX=  8   IZMAX=  8
   IXMIN= -9   IYMIN= -9   IZMIN= -9

 NGX is ok and might be reduce to  36
 NGY is ok and might be reduce to  36
 NGZ is ok and might be reduce to  36

 parallel 3dFFT wavefunction:
    minimum data exchange during FFTs selected (reduces bandwidth)
 parallel 3dFFT charge:
    minimum data exchange during FFTs selected (reduces bandwidth)

 For storing wavefunctions  112.09 MBYTES are necessary
 For predicting wavefunctions    3.73 MBYTES are necessary
Broyden mixing: mesh for mixing (old mesh)
   NGX = 17   NGY = 17   NGZ = 17
  (NGX  = 72   NGY  = 72   NGZ  = 72)
 gives a total of   4913 points
 initial charge density was supplied:
 charge density of overlapping atoms calculated
 number of electron   44.0000000 magnetization 
 keeping initial charge density in first step


--------------------------------------------------------------------------------------------------------


 Maximum index for augmentation-charges        69805 (set IRDMAX)


--------------------------------------------------------------------------------------------------------


 First call to EWALD:  gamma=   0.443
 Maximum number of real-space cells 3x 3x 3
 Maximum number of reciprocal cells 3x 3x 3

    FEWALD:  VPU time    0.00: CPU time    0.00


----------------------------------------- Iteration    1(   1)  ---------------------------------------


    POTLOK:  VPU time    0.14: CPU time    0.14
    SETDIJ:  VPU time    0.47: CPU time    0.47
    EDDAV :  VPU time    9.87: CPU time    9.91
    DOS   :  VPU time    0.00: CPU time   -0.00
    ------------------------------------------
      LOOP:  VPU time   10.49: CPU time   10.54

 eigenvalue-minimisations  :  4712
 total energy-change (2. order) : 0.4941020E+03  (-0.2814322E+04)
 number of electron   44.0000000 magnetization 
 augmentation part    44.0000000 magnetization 

 Free energy of the ion-electron system (eV)
  ---------------------------------------------------
  alpha Z        PSCENC =       445.04625380
  Ewald energy   TEWEN  =     -3997.57505132
  -1/2 Hartree   DENC   =      -769.59787056
  -V(xc)+E(xc)   XCENC  =       -42.01824194
  PAW double counting   =      3482.67677651    -3297.07979946
  entropy T*S    EENTRO =        -0.00020622
  eigenvalues    EBANDS =       523.00054902
  atomic energy  EATOM  =      4149.64961272
  ---------------------------------------------------
  free energy    TOTEN  =       494.10202254 eV

  energy without entropy =      494.10222876  energy(sigma->0) =      494.10212565


--------------------------------------------------------------------------------------------------------




----------------------------------------- Iteration    1(   2)  ---------------------------------------


    EDDAV :  VPU time   14.88: CPU time   14.94
    DOS   :  VPU time   -0.00: CPU time   -0.00
    ------------------------------------------
      LOOP:  VPU time   14.89: CPU time   14.95

 eigenvalue-minimisations  :  4728
 total energy-change (2. order) :-0.4900153E+03  (-0.4688059E+03)
 number of electron   44.0000000 magnetization 
 augmentation part    44.0000000 magnetization 

 Free energy of the ion-electron system (eV)
  ---------------------------------------------------
  alpha Z        PSCENC =       445.04625380
  Ewald energy   TEWEN  =     -3997.57505132
  -1/2 Hartree   DENC   =      -769.59787056
  -V(xc)+E(xc)   XCENC  =       -42.01824194
  PAW double counting   =      3482.67677651    -3297.07979946
  entropy T*S    EENTRO =        -0.00009708
  eigenvalues    EBANDS =        32.98516891
  atomic energy  EATOM  =      4149.64961272
  ---------------------------------------------------
  free energy    TOTEN  =         4.08675157 eV

  energy without entropy =        4.08684865  energy(sigma->0) =        4.08680011


--------------------------------------------------------------------------------------------------------




----------------------------------------- Iteration    1(   3)  ---------------------------------------


    EDDAV :  VPU time   20.75: CPU time   20.84
    DOS   :  VPU time    0.00: CPU time   -0.00
    ------------------------------------------
      LOOP:  VPU time   20.76: CPU time   20.85

 eigenvalue-minimisations  :  5080
 total energy-change (2. order) :-0.1595820E+02  (-0.1577159E+02)
 number of electron   44.0000000 magnetization 
 augmentation part    44.0000000 magnetization 

 Free energy of the ion-electron system (eV)
  ---------------------------------------------------
  alpha Z        PSCENC =       445.04625380
  Ewald energy   TEWEN  =     -3997.57505132
  -1/2 Hartree   DENC   =      -769.59787056
  -V(xc)+E(xc)   XCENC  =       -42.01824194
  PAW double counting   =      3482.67677651    -3297.07979946
  entropy T*S    EENTRO =        -0.00007448
  eigenvalues    EBANDS =        17.02694719
  atomic energy  EATOM  =      4149.64961272
  ---------------------------------------------------
  free energy    TOTEN  =       -11.87144755 eV

  energy without entropy =      -11.87137307  energy(sigma->0) =      -11.87141031


--------------------------------------------------------------------------------------------------------




----------------------------------------- Iteration    1(   4)  ---------------------------------------


    EDDAV :  VPU time   20.51: CPU time   20.61
    DOS   :  VPU time    0.00: CPU time   -0.00
    ------------------------------------------
      LOOP:  VPU time   20.52: CPU time   20.62

 eigenvalue-minimisations  :  5020
 total energy-change (2. order) :-0.1114945E+00  (-0.1114114E+00)
 number of electron   44.0000000 magnetization 
 augmentation part    44.0000000 magnetization 

 Free energy of the ion-electron system (eV)
  ---------------------------------------------------
  alpha Z        PSCENC =       445.04625380
  Ewald energy   TEWEN  =     -3997.57505132
  -1/2 Hartree   DENC   =      -769.59787056
  -V(xc)+E(xc)   XCENC  =       -42.01824194
  PAW double counting   =      3482.67677651    -3297.07979946
  entropy T*S    EENTRO =        -0.00007448
  eigenvalues    EBANDS =        16.91545274
  atomic energy  EATOM  =      4149.64961272
  ---------------------------------------------------
  free energy    TOTEN  =       -11.98294201 eV

  energy without entropy =      -11.98286752  energy(sigma->0) =      -11.98290476


--------------------------------------------------------------------------------------------------------




----------------------------------------- Iteration    1(   5)  ---------------------------------------


    EDDAV :  VPU time   20.40: CPU time   20.48
    DOS   :  VPU time    0.00: CPU time   -0.00
    CHARGE:  VPU time    1.59: CPU time    1.60
    MIXING:  VPU time    0.01: CPU time    0.01
    ------------------------------------------
      LOOP:  VPU time   22.02: CPU time   22.12

 eigenvalue-minimisations  :  4988
 total energy-change (2. order) :-0.4064255E-03  (-0.4064163E-03)
 number of electron   44.0000001 magnetization 
 augmentation part    20.2999992 magnetization 

 Broyden mixing:
  rms(total) = 0.60919E+00    rms(broyden)= 0.60919E+00
  rms(prec ) = 0.15201E+01
  weight for this iteration     100.00

 Free energy of the ion-electron system (eV)
  ---------------------------------------------------
  alpha Z        PSCENC =       445.04625380
  Ewald energy   TEWEN  =     -3997.57505132
  -1/2 Hartree   DENC   =      -769.59787056
  -V(xc)+E(xc)   XCENC  =       -42.01824194
  PAW double counting   =      3482.67677651    -3297.07979946
  entropy T*S    EENTRO =        -0.00007448
  eigenvalues    EBANDS =        16.91504631
  atomic energy  EATOM  =      4149.64961272
  ---------------------------------------------------
  free energy    TOTEN  =       -11.98334843 eV

  energy without entropy =      -11.98327395  energy(sigma->0) =      -11.98331119


--------------------------------------------------------------------------------------------------------




----------------------------------------- Iteration    1(   6)  ---------------------------------------


    POTLOK:  VPU time    0.21: CPU time    0.21
    SETDIJ:  VPU time    1.00: CPU time    1.01
    EDDAV :  VPU time   20.33: CPU time   20.44
    DOS   :  VPU time    0.00: CPU time   -0.00
    CHARGE:  VPU time    1.59: CPU time    1.60
    MIXING:  VPU time    0.01: CPU time    0.01
    ------------------------------------------
      LOOP:  VPU time   23.15: CPU time   23.28

 eigenvalue-minimisations  :  4988
 total energy-change (2. order) : 0.9610231E+00  (-0.3001688E+00)
 number of electron   44.0000001 magnetization 
 augmentation part    20.9605740 magnetization 

 Broyden mixing:
  rms(total) = 0.11854E+00    rms(broyden)= 0.11854E+00
  rms(prec ) = 0.28328E+00
  weight for this iteration     100.00

 eigenvalues of (default mixing * dielectric matrix)
  average eigenvalue GAMMA=   1.1269
  1.1269

 Free energy of the ion-electron system (eV)
  ---------------------------------------------------
  alpha Z        PSCENC =       445.04625380
  Ewald energy   TEWEN  =     -3997.57505132
  -1/2 Hartree   DENC   =      -731.86296509
  -V(xc)+E(xc)   XCENC  =       -43.36417001
  PAW double counting   =      3451.90301497    -3270.46239463
  entropy T*S    EENTRO =        -0.00013907
  eigenvalues    EBANDS =       -14.35648672
  atomic energy  EATOM  =      4149.64961272
  ---------------------------------------------------
  free energy    TOTEN  =       -11.02232536 eV

  energy without entropy =      -11.02218629  energy(sigma->0) =      -11.02225582


--------------------------------------------------------------------------------------------------------




----------------------------------------- Iteration    1(   7)  ---------------------------------------


    POTLOK:  VPU time    0.21: CPU time    0.21
    SETDIJ:  VPU time    0.99: CPU time    1.00
    EDDAV :  VPU time   20.26: CPU time   20.36
    DOS   :  VPU time    0.00: CPU time   -0.00
    CHARGE:  VPU time    1.58: CPU time    1.59
    MIXING:  VPU time    0.01: CPU time    0.01
    ------------------------------------------
      LOOP:  VPU time   23.06: CPU time   23.19

 eigenvalue-minimisations  :  4924
 total energy-change (2. order) : 0.4184556E-01  (-0.6892683E-02)
 number of electron   44.0000001 magnetization 
 augmentation part    21.0247228 magnetization 

 Broyden mixing:
  rms(total) = 0.53044E-01    rms(broyden)= 0.53044E-01
  rms(prec ) = 0.10781E+00
  weight for this iteration     100.00

 eigenvalues of (default mixing * dielectric matrix)
  average eigenvalue GAMMA=   1.7322
  1.0755  2.3890

 Free energy of the ion-electron system (eV)
  ---------------------------------------------------
  alpha Z        PSCENC =       445.04625380
  Ewald energy   TEWEN  =     -3997.57505132
  -1/2 Hartree   DENC   =      -724.47340803
  -V(xc)+E(xc)   XCENC  =       -43.63447525
  PAW double counting   =      3472.16488576    -3294.11498281
  entropy T*S    EENTRO =        -0.00013913
  eigenvalues    EBANDS =       -18.04317553
  atomic energy  EATOM  =      4149.64961272
  ---------------------------------------------------
  free energy    TOTEN  =       -10.98047980 eV

  energy without entropy =      -10.98034067  energy(sigma->0) =      -10.98041023


--------------------------------------------------------------------------------------------------------




----------------------------------------- Iteration    1(   8)  ---------------------------------------


    POTLOK:  VPU time    0.21: CPU time    0.21
    SETDIJ:  VPU time    1.00: CPU time    1.01
    EDDAV :  VPU time   20.15: CPU time   20.23
    DOS   :  VPU time    0.00: CPU time   -0.00
    CHARGE:  VPU time    1.59: CPU time    1.60
    MIXING:  VPU time    0.01: CPU time    0.01
    ------------------------------------------
      LOOP:  VPU time   22.97: CPU time   23.07

 eigenvalue-minimisations  :  4888
 total energy-change (2. order) : 0.1549960E-01  (-0.4888708E-03)
 number of electron   44.0000001 magnetization 
 augmentation part    21.0249090 magnetization 

 Broyden mixing:
  rms(total) = 0.39454E-02    rms(broyden)= 0.39447E-02
  rms(prec ) = 0.86487E-02
  weight for this iteration     100.00

 eigenvalues of (default mixing * dielectric matrix)
  average eigenvalue GAMMA=   1.7147
  2.6833  1.0835  1.3775

 Free energy of the ion-electron system (eV)
  ---------------------------------------------------
  alpha Z        PSCENC =       445.04625380
  Ewald energy   TEWEN  =     -3997.57505132
  -1/2 Hartree   DENC   =      -719.63364996
  -V(xc)+E(xc)   XCENC  =       -43.81575381
  PAW double counting   =      3504.65469840    -3330.25982905
  entropy T*S    EENTRO =        -0.00013933
  eigenvalues    EBANDS =       -19.03112164
  atomic energy  EATOM  =      4149.64961272
  ---------------------------------------------------
  free energy    TOTEN  =       -10.96498019 eV

  energy without entropy =      -10.96484087  energy(sigma->0) =      -10.96491053


--------------------------------------------------------------------------------------------------------




----------------------------------------- Iteration    1(   9)  ---------------------------------------


    POTLOK:  VPU time    0.21: CPU time    0.21
    SETDIJ:  VPU time    0.99: CPU time    1.00
    EDDAV :  VPU time   20.58: CPU time   20.69
    DOS   :  VPU time    0.00: CPU time   -0.00
    CHARGE:  VPU time    1.59: CPU time    1.59
    MIXING:  VPU time    0.01: CPU time    0.01
    ------------------------------------------
      LOOP:  VPU time   23.39: CPU time   23.52

 eigenvalue-minimisations  :  5040
 total energy-change (2. order) :-0.1227510E-03  (-0.1927990E-04)
 number of electron   44.0000001 magnetization 
 augmentation part    21.0296796 magnetization 

 Broyden mixing:
  rms(total) = 0.27612E-02    rms(broyden)= 0.27612E-02
  rms(prec ) = 0.59800E-02
  weight for this iteration     100.00

 eigenvalues of (default mixing * dielectric matrix)
  average eigenvalue GAMMA=   1.7812
  2.6609  2.4278  1.0181  1.0181

 Free energy of the ion-electron system (eV)
  ---------------------------------------------------
  alpha Z        PSCENC =       445.04625380
  Ewald energy   TEWEN  =     -3997.57505132
  -1/2 Hartree   DENC   =      -719.15548721
  -V(xc)+E(xc)   XCENC  =       -43.83384122
  PAW double counting   =      3507.87690774    -3333.63299131
  entropy T*S    EENTRO =        -0.00013968
  eigenvalues    EBANDS =       -19.34036647
  atomic energy  EATOM  =      4149.64961272
  ---------------------------------------------------
  free energy    TOTEN  =       -10.96510294 eV

  energy without entropy =      -10.96496327  energy(sigma->0) =      -10.96503311


--------------------------------------------------------------------------------------------------------




----------------------------------------- Iteration    1(  10)  ---------------------------------------


    POTLOK:  VPU time    0.21: CPU time    0.21
    SETDIJ:  VPU time    1.00: CPU time    1.00
    EDDAV :  VPU time   20.08: CPU time   20.20
    DOS   :  VPU time    0.00: CPU time   -0.00
    CHARGE:  VPU time    1.61: CPU time    1.61
    MIXING:  VPU time    0.01: CPU time    0.01
    ------------------------------------------
      LOOP:  VPU time   22.92: CPU time   23.05

 eigenvalue-minimisations  :  4876
 total energy-change (2. order) : 0.2774400E-04  (-0.1434233E-05)
 number of electron   44.0000001 magnetization 
 augmentation part    21.0287414 magnetization 

 Broyden mixing:
  rms(total) = 0.28205E-03    rms(broyden)= 0.28202E-03
  rms(prec ) = 0.63762E-03
  weight for this iteration     100.00

 eigenvalues of (default mixing * dielectric matrix)
  average eigenvalue GAMMA=   1.7442
  2.7947  2.4608  1.0337  1.0337  1.3982

 Free energy of the ion-electron system (eV)
  ---------------------------------------------------
  alpha Z        PSCENC =       445.04625380
  Ewald energy   TEWEN  =     -3997.57505132
  -1/2 Hartree   DENC   =      -719.42015595
  -V(xc)+E(xc)   XCENC  =       -43.82492359
  PAW double counting   =      3508.21003848    -3333.76897609
  entropy T*S    EENTRO =        -0.00013958
  eigenvalues    EBANDS =       -19.28173366
  atomic energy  EATOM  =      4149.64961272
  ---------------------------------------------------
  free energy    TOTEN  =       -10.96507520 eV

  energy without entropy =      -10.96493562  energy(sigma->0) =      -10.96500541


--------------------------------------------------------------------------------------------------------




----------------------------------------- Iteration    1(  11)  ---------------------------------------


    POTLOK:  VPU time    0.21: CPU time    0.21
    SETDIJ:  VPU time    0.99: CPU time    1.00
    EDDAV :  VPU time   20.60: CPU time   20.69
    DOS   :  VPU time    0.00: CPU time   -0.00
    CHARGE:  VPU time    1.60: CPU time    1.61
    MIXING:  VPU time    0.01: CPU time    0.01
    ------------------------------------------
      LOOP:  VPU time   23.43: CPU time   23.53

 eigenvalue-minimisations  :  5060
 total energy-change (2. order) : 0.1773435E-05  (-0.3901112E-07)
 number of electron   44.0000001 magnetization 
 augmentation part    21.0285899 magnetization 

 Broyden mixing:
  rms(total) = 0.55468E-04    rms(broyden)= 0.55465E-04
  rms(prec ) = 0.11635E-03
  weight for this iteration     100.00

 eigenvalues of (default mixing * dielectric matrix)
  average eigenvalue GAMMA=   1.8444
  2.9482  2.5436  2.5436  0.9959  1.0176  1.0176

 Free energy of the ion-electron system (eV)
  ---------------------------------------------------
  alpha Z        PSCENC =       445.04625380
  Ewald energy   TEWEN  =     -3997.57505132
  -1/2 Hartree   DENC   =      -719.44287147
  -V(xc)+E(xc)   XCENC  =       -43.82418812
  PAW double counting   =      3508.22296196    -3333.76758715
  entropy T*S    EENTRO =        -0.00013957
  eigenvalues    EBANDS =       -19.27406427
  atomic energy  EATOM  =      4149.64961272
  ---------------------------------------------------
  free energy    TOTEN  =       -10.96507343 eV

  energy without entropy =      -10.96493386  energy(sigma->0) =      -10.96500364


--------------------------------------------------------------------------------------------------------




----------------------------------------- Iteration    1(  12)  ---------------------------------------


    POTLOK:  VPU time    0.24: CPU time    0.25
    SETDIJ:  VPU time    1.00: CPU time    1.01
    EDDAV :  VPU time   17.48: CPU time   17.53
    DOS   :  VPU time    0.00: CPU time   -0.00
    CHARGE:  VPU time    1.60: CPU time    1.60
    MIXING:  VPU time    0.01: CPU time    0.01
    ------------------------------------------
      LOOP:  VPU time   20.35: CPU time   20.40

 eigenvalue-minimisations  :  3976
 total energy-change (2. order) : 0.3349596E-06  (-0.1812671E-08)
 number of electron   44.0000001 magnetization 
 augmentation part    21.0285660 magnetization 

 Broyden mixing:
  rms(total) = 0.92522E-05    rms(broyden)= 0.92520E-05
  rms(prec ) = 0.21636E-04
  weight for this iteration     100.00

 eigenvalues of (default mixing * dielectric matrix)
  average eigenvalue GAMMA=   1.7540
  2.7776  2.5948  2.5261  1.0314  1.0314  1.0304  1.2861

 Free energy of the ion-electron system (eV)
  ---------------------------------------------------
  alpha Z        PSCENC =       445.04625380
  Ewald energy   TEWEN  =     -3997.57505132
  -1/2 Hartree   DENC   =      -719.44490516
  -V(xc)+E(xc)   XCENC  =       -43.82412992
  PAW double counting   =      3508.13675756    -3333.68161960
  entropy T*S    EENTRO =        -0.00013956
  eigenvalues    EBANDS =       -19.27185160
  atomic energy  EATOM  =      4149.64961272
  ---------------------------------------------------
  free energy    TOTEN  =       -10.96507309 eV

  energy without entropy =      -10.96493353  energy(sigma->0) =      -10.96500331


--------------------------------------------------------------------------------------------------------




----------------------------------------- Iteration    1(  13)  ---------------------------------------


    POTLOK:  VPU time    0.24: CPU time    0.25
    SETDIJ:  VPU time    1.00: CPU time    1.00
    EDDAV :  VPU time   13.45: CPU time   13.48
    DOS   :  VPU time    0.00: CPU time   -0.00
    CHARGE:  VPU time    1.40: CPU time    1.41
    MIXING:  VPU time    0.01: CPU time    0.01
    ------------------------------------------
      LOOP:  VPU time   16.11: CPU time   16.16

 eigenvalue-minimisations  :  2568
 total energy-change (2. order) : 0.1605658E-06  (-0.1168930E-09)
 number of electron   44.0000001 magnetization 
 augmentation part    21.0285597 magnetization 

 Broyden mixing:
  rms(total) = 0.19106E-05    rms(broyden)= 0.19106E-05
  rms(prec ) = 0.30873E-05
  weight for this iteration     100.00

 eigenvalues of (default mixing * dielectric matrix)
  average eigenvalue GAMMA=   1.7846
  2.8264  2.4947  2.4519  2.4519  0.9688  1.0232  1.0232  1.0365

 Free energy of the ion-electron system (eV)
  ---------------------------------------------------
  alpha Z        PSCENC =       445.04625380
  Ewald energy   TEWEN  =     -3997.57505132
  -1/2 Hartree   DENC   =      -719.44586935
  -V(xc)+E(xc)   XCENC  =       -43.82409425
  PAW double counting   =      3508.13068387    -3333.67502844
  entropy T*S    EENTRO =        -0.00013956
  eigenvalues    EBANDS =       -19.27144039
  atomic energy  EATOM  =      4149.64961272
  ---------------------------------------------------
  free energy    TOTEN  =       -10.96507293 eV

  energy without entropy =      -10.96493337  energy(sigma->0) =      -10.96500315


--------------------------------------------------------------------------------------------------------




----------------------------------------- Iteration    1(  14)  ---------------------------------------


    POTLOK:  VPU time    0.24: CPU time    0.24
    SETDIJ:  VPU time    1.08: CPU time    1.09
    EDDAV :  VPU time   13.43: CPU time   13.54
    DOS   :  VPU time    0.00: CPU time   -0.00
    CHARGE:  VPU time    1.59: CPU time    1.60
    MIXING:  VPU time    0.01: CPU time    0.01
    ------------------------------------------
      LOOP:  VPU time   16.35: CPU time   16.48

 eigenvalue-minimisations  :  2520
 total energy-change (2. order) : 0.3421792E-07  (-0.6794447E-11)
 number of electron   44.0000001 magnetization 
 augmentation part    21.0285623 magnetization 

 Broyden mixing:
  rms(total) = 0.10921E-05    rms(broyden)= 0.10921E-05
  rms(prec ) = 0.23770E-05
  weight for this iteration     100.00

 eigenvalues of (default mixing * dielectric matrix)
  average eigenvalue GAMMA=   1.7829
  3.0659  2.6388  2.5394  2.5394  1.2760  1.0166  1.0166  1.0330  0.9205

 Free energy of the ion-electron system (eV)
  ---------------------------------------------------
  alpha Z        PSCENC =       445.04625380
  Ewald energy   TEWEN  =     -3997.57505132
  -1/2 Hartree   DENC   =      -719.44576868
  -V(xc)+E(xc)   XCENC  =       -43.82409727
  PAW double counting   =      3508.13337039    -3333.67764538
  entropy T*S    EENTRO =        -0.00013956
  eigenvalues    EBANDS =       -19.27160758
  atomic energy  EATOM  =      4149.64961272
  ---------------------------------------------------
  free energy    TOTEN  =       -10.96507290 eV

  energy without entropy =      -10.96493333  energy(sigma->0) =      -10.96500312


--------------------------------------------------------------------------------------------------------




----------------------------------------- Iteration    1(  15)  ---------------------------------------


    POTLOK:  VPU time    0.21: CPU time    0.21
    SETDIJ:  VPU time    1.00: CPU time    1.01
    EDDAV :  VPU time   13.41: CPU time   13.45
    DOS   :  VPU time    0.00: CPU time   -0.00
    ------------------------------------------
      LOOP:  VPU time   14.63: CPU time   14.68

 eigenvalue-minimisations  :  2540
 total energy-change (2. order) : 0.2659363E-08  (-0.1063488E-11)
 number of electron   44.0000001 magnetization 
 augmentation part    21.0285623 magnetization 

 Free energy of the ion-electron system (eV)
  ---------------------------------------------------
  alpha Z        PSCENC =       445.04625380
  Ewald energy   TEWEN  =     -3997.57505132
  -1/2 Hartree   DENC   =      -719.44578946
  -V(xc)+E(xc)   XCENC  =       -43.82409658
  PAW double counting   =      3508.13330026    -3333.67757902
  entropy T*S    EENTRO =        -0.00013956
  eigenvalues    EBANDS =       -19.27158373
  atomic energy  EATOM  =      4149.64961272
  ---------------------------------------------------
  free energy    TOTEN  =       -10.96507289 eV

  energy without entropy =      -10.96493333  energy(sigma->0) =      -10.96500311


--------------------------------------------------------------------------------------------------------




 average (electrostatic) potential at core
  the test charge radii are     1.1249
  (the norm of the test charge is              1.0000)
       1 -40.8330       2 -40.8330       3 -40.8330       4 -40.8330
 
 
 
 E-fermi :   4.1914     XC(G=0): -12.6089     alpha+bet : -9.1232
   add alpha+bet to get absolut eigen values

 k-point   1 :       0.0000    0.0000    0.0000
  band No.  band energies     occupation 
      1      -4.1294      2.00000
      2      -2.7901      2.00000
      3      -2.7901      2.00000
      4      -2.7901      2.00000
      5      -2.6277      2.00000
      6      -2.6277      2.00000
      7      -2.6277      2.00000
      8      -0.9488      2.00000
      9      -0.9488      2.00000
     10      -0.9488      2.00000
     11       0.2159      2.00000
     12       0.2159      2.00000
     13       1.0737      2.00000
     14       1.0737      2.00000
     15       1.0737      2.00000
     16       1.3411      2.00000
     17       1.3411      2.00000
     18       1.3411      2.00000
     19       1.3411      2.00000
     20       1.3411      2.00000
     21       1.3411      2.00000
     22       5.7000      0.00000
     23       5.7000      0.00000
     24       5.7000      0.00000
     25      11.4230      0.00000
     26      11.4230      0.00000
     27      11.4230      0.00000
     28      15.3809      0.00000

 k-point   2 :       0.0833    0.0000    0.0000
  band No.  band energies     occupation 
      1      -4.0525      2.00000
      2      -2.7566      2.00000
      3      -2.7472      2.00000
      4      -2.7472      2.00000
      5      -2.6023      2.00000
      6      -2.5889      2.00000
      7      -2.5889      2.00000
      8      -0.9813      2.00000
      9      -0.9192      2.00000
     10      -0.9192      2.00000
     11       0.1831      2.00000
     12       0.2298      2.00000
     13       1.0297      2.00000
     14       1.0297      2.00000
     15       1.0582      2.00000
     16       1.1794      2.00000
     17       1.1794      2.00000
     18       1.2877      2.00000
     19       1.2877      2.00000
     20       1.3412      2.00000
     21       1.3412      2.00000
     22       5.2275      0.00000
     23       5.9226      0.00000
     24       5.9226      0.00000
     25      11.4313      0.00000
     26      11.4313      0.00000
     27      12.0083      0.00000
     28      15.1330      0.00000

 k-point   3 :       0.1667    0.0000    0.0000
  band No.  band energies     occupation 
      1      -3.8259      2.00000
      2      -2.6605      2.00000
      3      -2.6236      2.00000
      4      -2.6236      2.00000
      5      -2.5273      2.00000
      6      -2.4729      2.00000
      7      -2.4729      2.00000
      8      -1.0756      2.00000
      9      -0.8309      2.00000
     10      -0.8309      2.00000
     11       0.0910      2.00000
     12       0.2706      2.00000
     13       0.7735      2.00000
     14       0.7735      2.00000
     15       0.9030      2.00000
     16       0.9030      2.00000
     17       1.0131      2.00000
     18       1.1355      2.00000
     19       1.1355      2.00000
     20       1.3414      2.00000
     21       1.3414      2.00000
     22       4.1718      1.99441
     23       6.5099      0.00000
     24       6.5099      0.00000
     25      11.4585      0.00000
     26      11.4585      0.00000
     27      13.4006      0.00000
     28      14.4765      0.00000

 k-point   4 :       0.2500    0.0000    0.0000
  band No.  band energies     occupation 
      1      -3.4653      2.00000
      2      -2.5161      2.00000
      3      -2.4369      2.00000
      4      -2.4369      2.00000
      5      -2.4063      2.00000
      6      -2.2804      2.00000
      7      -2.2804      2.00000
      8      -1.2229      2.00000
      9      -0.6865      2.00000
     10      -0.6865      2.00000
     11      -0.0388      2.00000
     12       0.2569      2.00000
     13       0.2569      2.00000
     14       0.3358      2.00000
     15       0.7109      2.00000
     16       0.7109      2.00000
     17       0.9060      2.00000
     18       0.9060      2.00000
     19       0.9420      2.00000
     20       1.3417      2.00000
     21       1.3417      2.00000
     22       2.9670      2.00000
     23       7.3255      0.00000
     24       7.3255      0.00000
     25      11.5105      0.00000
     26      11.5105      0.00000
     27      13.5784      0.00000
     28      13.5784      0.00000

 k-point   5 :       0.3333    0.0000    0.0000
  band No.  band energies     occupation 
      1      -3.0094      2.00000
      2      -2.3533      2.00000
      3      -2.2454      2.00000
      4      -2.2215      2.00000
      5      -2.2215      2.00000
      6      -2.0130      2.00000
      7      -2.0130      2.00000
      8      -1.4099      2.00000
      9      -0.4901      2.00000
     10      -0.4901      2.00000
     11      -0.2821      2.00000
     12      -0.2821      2.00000
     13      -0.1580      2.00000
     14       0.4217      2.00000
     15       0.4886      2.00000
     16       0.4886      2.00000
     17       0.6270      2.00000
     18       0.6270      2.00000
     19       0.8501      2.00000
     20       1.3420      2.00000
     21       1.3420      2.00000
     22       1.8131      2.00000
     23       8.2758      0.00000
     24       8.2758      0.00000
     25      11.5921      0.00000
     26      11.5921      0.00000
     27      12.5556      0.00000
     28      12.5556      0.00000

 k-point   6 :       0.4167    0.0000    0.0000
  band No.  band energies     occupation 
      1      -2.5518      2.00000
      2      -2.2314      2.00000
      3      -2.0531      2.00000
      4      -2.0363      2.00000
      5      -2.0363      2.00000
      6      -1.6733      2.00000
      7      -1.6733      2.00000
      8      -1.6212      2.00000
      9      -0.7976      2.00000
     10      -0.7976      2.00000
     11      -0.2486      2.00000
     12      -0.2486      2.00000
     13      -0.1613      2.00000
     14       0.2973      2.00000
     15       0.2973      2.00000
     16       0.3265      2.00000
     17       0.3265      2.00000
     18       0.5229      2.00000
     19       0.7446      2.00000
     20       0.8261      2.00000
     21       1.3423      2.00000
     22       1.3423      2.00000
     23       9.3068      0.00000
     24       9.3068      0.00000
     25      11.4765      0.00000
     26      11.4765      0.00000
     27      11.6926      0.00000
     28      11.6926      0.00000

 k-point   7 :       0.5000    0.0000    0.0000
  band No.  band energies     occupation 
      1      -2.2628      2.00000
      2      -2.2628      2.00000
      3      -1.9599      2.00000
      4      -1.9599      2.00000
      5      -1.8406      2.00000
      6      -1.8406      2.00000
      7      -1.2657      2.00000
      8      -1.2657      2.00000
      9      -1.2657      2.00000
     10      -1.2657      2.00000
     11       0.0283      2.00000
     12       0.0283      2.00000
     13       0.0283      2.00000
     14       0.0283      2.00000
     15       0.1338      2.00000
     16       0.1338      2.00000
     17       0.2185      2.00000
     18       0.2185      2.00000
     19       0.6330      2.00000
     20       0.6330      2.00000
     21       1.3423      2.00000
     22       1.3423      2.00000
     23      10.3832      0.00000
     24      10.3832      0.00000
     25      10.3832      0.00000
     26      10.3832      0.00000
     27      11.7489      0.00000
     28      11.7489      0.00000

 k-point   8 :       0.0833    0.0833    0.0000
  band No.  band energies     occupation 
      1      -3.9766      2.00000
      2      -2.7134      2.00000
      3      -2.7134      2.00000
      4      -2.7110      2.00000
      5      -2.5640      2.00000
      6      -2.5640      2.00000
      7      -2.5449      2.00000
      8      -0.9940      2.00000
      9      -0.9084      2.00000
     10      -0.8916      2.00000
     11       0.1743      2.00000
     12       0.2226      2.00000
     13       0.9877      2.00000
     14       0.9890      2.00000
     15       0.9890      2.00000
     16       1.0668      2.00000
     17       1.1501      2.00000
     18       1.1501      2.00000
     19       1.2876      2.00000
     20       1.2876      2.00000
     21       1.3047      2.00000
     22       5.4428      0.00000
     23       5.4428      0.00000
     24       6.1328      0.00000
     25      11.4397      0.00000
     26      12.0253      0.00000
     27      12.0253      0.00000
     28      14.2795      0.00000

 k-point   9 :       0.1667    0.0833    0.0000
  band No.  band energies     occupation 
      1      -3.7534      2.00000
      2      -2.6164      2.00000
      3      -2.6051      2.00000
      4      -2.5889      2.00000
      5      -2.4906      2.00000
      6      -2.4496      2.00000
      7      -2.4160      2.00000
      8      -1.0764      2.00000
      9      -0.8296      2.00000
     10      -0.8106      2.00000
     11       0.0947      2.00000
     12       0.2604      2.00000
     13       0.6668      2.00000
     14       0.7053      2.00000
     15       0.8571      2.00000
     16       0.8662      2.00000
     17       0.9416      2.00000
     18       1.0800      2.00000
     19       1.1350      2.00000
     20       1.2861      2.00000
     21       1.2873      2.00000
     22       4.3844      0.00000
     23       6.0021      0.00000
     24       6.6953      0.00000
     25      11.4649      0.00000
     26      12.0785      0.00000
     27      13.3081      0.00000
     28      13.4261      0.00000

 k-point  10 :       0.2500    0.0833    0.0000
  band No.  band energies     occupation 
      1      -3.3985      2.00000
      2      -2.4704      2.00000
      3      -2.4367      2.00000
      4      -2.4009      2.00000
      5      -2.3721      2.00000
      6      -2.2598      2.00000
      7      -2.2132      2.00000
      8      -1.2177      2.00000
      9      -0.6874      2.00000
     10      -0.6839      2.00000
     11      -0.0218      2.00000
     12       0.1704      2.00000
     13       0.2168      2.00000
     14       0.3339      2.00000
     15       0.6359      2.00000
     16       0.6815      2.00000
     17       0.7372      2.00000
     18       0.9049      2.00000
     19       0.9873      2.00000
     20       1.2824      2.00000
     21       1.2868      2.00000
     22       3.1933      2.00000
     23       6.7612      0.00000
     24       7.4880      0.00000
     25      11.4924      0.00000
     26      12.1707      0.00000
     27      12.3592      0.00000
     28      13.6987      0.00000

 k-point  11 :       0.3333    0.0833    0.0000
  band No.  band energies     occupation 
      1      -2.9502      2.00000
      2      -2.3051      2.00000
      3      -2.2246      2.00000
      4      -2.2146      2.00000
      5      -2.1836      2.00000
      6      -1.9964      2.00000
      7      -1.9537      2.00000
      8      -1.3991      2.00000
      9      -0.5445      2.00000
     10      -0.4918      2.00000
     11      -0.3509      2.00000
     12      -0.3026      2.00000
     13      -0.0933      2.00000
     14       0.3475      2.00000
     15       0.4332      2.00000
     16       0.4675      2.00000
     17       0.5090      2.00000
     18       0.6255      2.00000
     19       0.8728      2.00000
     20       1.2821      2.00000
     21       1.2861      2.00000
     22       2.0758      2.00000
     23       7.6223      0.00000
     24       8.4209      0.00000
     25      11.2014      0.00000
     26      11.8049      0.00000
     27      12.2831      0.00000
     28      12.6737      0.00000

 k-point  12 :       0.4167    0.0833    0.0000
  band No.  band energies     occupation 
      1      -2.4987      2.00000
      2      -2.1802      2.00000
      3      -2.0266      2.00000
      4      -2.0216      2.00000
      5      -1.9973      2.00000
      6      -1.6622      2.00000
      7      -1.6474      2.00000
      8      -1.6049      2.00000
      9      -0.8436      2.00000
     10      -0.8041      2.00000
     11      -0.4541      2.00000
     12      -0.2505      2.00000
     13       0.0167      2.00000
     14       0.0352      2.00000
     15       0.2854      2.00000
     16       0.3090      2.00000
     17       0.3246      2.00000
     18       0.5551      2.00000
     19       0.7212      2.00000
     20       1.1704      2.00000
     21       1.2829      2.00000
     22       1.2852      2.00000
     23       8.5282      0.00000
     24       9.4395      0.00000
     25      10.3516      0.00000
     26      11.5960      0.00000
     27      11.8936      0.00000
     28      12.2937      0.00000

 k-point  13 :       0.5000    0.0833    0.0000
  band No.  band energies     occupation 
      1      -2.2105      2.00000
      2      -2.2105      2.00000
      3      -1.9264      2.00000
      4      -1.9264      2.00000
      5      -1.8190      2.00000
      6      -1.8190      2.00000
      7      -1.2804      2.00000
      8      -1.2804      2.00000
      9      -1.2620      2.00000
     10      -1.2620      2.00000
     11      -0.2917      2.00000
     12      -0.2917      2.00000
     13       0.0263      2.00000
     14       0.0263      2.00000
     15       0.2181      2.00000
     16       0.2181      2.00000
     17       0.3883      2.00000
     18       0.3883      2.00000
     19       0.7162      2.00000
     20       0.7162      2.00000
     21       1.2841      2.00000
     22       1.2841      2.00000
     23       9.4443      0.00000
     24       9.4443      0.00000
     25      10.5076      0.00000
     26      10.5076      0.00000
     27      12.1031      0.00000
     28      12.1031      0.00000

 k-point  14 :       0.1667    0.1667    0.0000
  band No.  band energies     occupation 
      1      -3.5406      2.00000
      2      -2.5344      2.00000
      3      -2.4893      2.00000
      4      -2.4893      2.00000
      5      -2.3808      2.00000
      6      -2.3808      2.00000
      7      -2.2659      2.00000
      8      -1.1124      2.00000
      9      -0.7901      2.00000
     10      -0.7521      2.00000
     11       0.0643      2.00000
     12       0.2787      2.00000
     13       0.4575      2.00000
     14       0.4575      2.00000
     15       0.4696      2.00000
     16       0.7592      2.00000
     17       0.9522      2.00000
     18       0.9522      2.00000
     19       1.1335      2.00000
     20       1.1335      2.00000
     21       1.1971      2.00000
     22       4.9178      0.00000
     23       4.9178      0.00000
     24       7.2044      0.00000
     25      11.4522      0.00000
     26      12.1745      0.00000
     27      13.4957      0.00000
     28      13.4957      0.00000

 k-point  15 :       0.2500    0.1667    0.0000
  band No.  band energies     occupation 
      1      -3.2035      2.00000
      2      -2.4001      2.00000
      3      -2.3384      2.00000
      4      -2.2966      2.00000
      5      -2.2700      2.00000
      6      -2.1990      2.00000
      7      -2.0521      2.00000
      8      -1.2177      2.00000
      9      -0.6728      2.00000
     10      -0.6703      2.00000
     11      -0.0319      2.00000
     12      -0.0171      2.00000
     13       0.0828      2.00000
     14       0.1932      2.00000
     15       0.3735      2.00000
     16       0.5948      2.00000
     17       0.7627      2.00000
     18       0.9020      2.00000
     19       0.9026      2.00000
     20       1.1311      2.00000
     21       1.1485      2.00000
     22       3.7283      2.00000
     23       5.6179      0.00000
     24       7.9439      0.00000
     25      10.8821      0.00000
     26      11.7135      0.00000
     27      13.5375      0.00000
     28      14.0484      0.00000

 k-point  16 :       0.3333    0.1667    0.0000
  band No.  band energies     occupation 
      1      -2.7792      2.00000
      2      -2.2070      2.00000
      3      -2.1653      2.00000
      4      -2.1230      2.00000
      5      -2.0730      2.00000
      6      -1.9475      2.00000
      7      -1.8061      2.00000
      8      -1.3745      2.00000
      9      -0.6209      2.00000
     10      -0.5211      2.00000
     11      -0.4881      2.00000
     12      -0.3702      2.00000
     13      -0.1059      2.00000
     14      -0.0398      2.00000
     15       0.4032      2.00000
     16       0.5276      2.00000
     17       0.5358      2.00000
     18       0.6214      2.00000
     19       0.7934      2.00000
     20       1.1281      2.00000
     21       1.1294      2.00000
     22       2.6289      2.00000
     23       6.3976      0.00000
     24       8.8340      0.00000
     25       9.8972      0.00000
     26      11.8120      0.00000
     27      13.0166      0.00000
     28      13.2444      0.00000

 k-point  17 :       0.4167    0.1667    0.0000
  band No.  band energies     occupation 
      1      -2.3481      2.00000
      2      -2.0319      2.00000
      3      -1.9843      2.00000
      4      -1.9483      2.00000
      5      -1.8832      2.00000
      6      -1.6300      2.00000
      7      -1.5635      2.00000
      8      -1.5600      2.00000
      9      -0.9615      2.00000
     10      -0.8267      2.00000
     11      -0.6475      2.00000
     12      -0.4052      2.00000
     13      -0.2519      2.00000
     14       0.1114      2.00000
     15       0.2451      2.00000
     16       0.3202      2.00000
     17       0.3233      2.00000
     18       0.6213      2.00000
     19       0.7493      2.00000
     20       1.1233      2.00000
     21       1.1252      2.00000
     22       1.7284      2.00000
     23       7.2183      0.00000
     24       8.9566      0.00000
     25       9.8209      0.00000
     26      11.9426      0.00000
     27      12.0219      0.00000
     28      12.7541      0.00000

 k-point  18 :       0.5000    0.1667    0.0000
  band No.  band energies     occupation 
      1      -2.0615      2.00000
      2      -2.0615      2.00000
      3      -1.8341      2.00000
      4      -1.8341      2.00000
      5      -1.7563      2.00000
      6      -1.7563      2.00000
      7      -1.3107      2.00000
      8      -1.3107      2.00000
      9      -1.2529      2.00000
     10      -1.2529      2.00000
     11      -0.6138      2.00000
     12      -0.6138      2.00000
     13       0.0226      2.00000
     14       0.0226      2.00000
     15       0.2061      2.00000
     16       0.2061      2.00000
     17       0.3771      2.00000
     18       0.3771      2.00000
     19       1.1084      2.00000
     20       1.1084      2.00000
     21       1.1230      2.00000
     22       1.1230      2.00000
     23       8.0689      0.00000
     24       8.0689      0.00000
     25      10.8671      0.00000
     26      10.8671      0.00000
     27      12.3339      0.00000
     28      12.3339      0.00000

 k-point  19 :       0.2500    0.2500    0.0000
  band No.  band energies     occupation 
      1      -2.8981      2.00000
      2      -2.3035      2.00000
      3      -2.1370      2.00000
      4      -2.1370      2.00000
      5      -2.1016      2.00000
      6      -2.1016      2.00000
      7      -1.8376      2.00000
      8      -1.2591      2.00000
      9      -0.6457      2.00000
     10      -0.6022      2.00000
     11      -0.2860      2.00000
     12      -0.2860      2.00000
     13      -0.1635      2.00000
     14      -0.0752      2.00000
     15       0.4583      2.00000
     16       0.5219      2.00000
     17       0.7342      2.00000
     18       0.7342      2.00000
     19       0.8977      2.00000
     20       0.8977      2.00000
     21       1.0237      2.00000
     22       4.4008      0.00000
     23       4.4008      0.00000
     24       8.6246      0.00000
     25       9.7199      0.00000
     26      11.7795      0.00000
     27      14.5271      0.00000
     28      14.5593      0.00000

 k-point  20 :       0.3333    0.2500    0.0000
  band No.  band energies     occupation 
      1      -2.5180      2.00000
      2      -2.1448      2.00000
      3      -1.9733      2.00000
      4      -1.9500      2.00000
      5      -1.9006      2.00000
      6      -1.8702      2.00000
      7      -1.6066      2.00000
      8      -1.3583      2.00000
      9      -0.7371      2.00000
     10      -0.6587      2.00000
     11      -0.5547      2.00000
     12      -0.4999      2.00000
     13      -0.4538      2.00000
     14      -0.1043      2.00000
     15       0.2961      2.00000
     16       0.5176      2.00000
     17       0.6165      2.00000
     18       0.6344      2.00000
[...]
     14       0.1750      2.00000
     15       0.1750      2.00000
     16       0.1750      2.00000
     17       0.7856      2.00000
     18       0.7856      2.00000
     19       0.7856      2.00000
     20       0.7856      2.00000
     21       3.6267      2.00000
     22       3.6267      2.00000
     23       3.6267      2.00000
     24       3.6267      2.00000
     25       9.9273      0.00000
     26       9.9273      0.00000
     27       9.9273      0.00000
     28       9.9273      0.00000

 k-point  75 :       0.3333    0.3333    0.3333
  band No.  band energies     occupation 
      1      -2.5805      2.00000
      2      -2.2823      2.00000
      3      -2.2823      2.00000
      4      -2.2823      2.00000
      5      -1.2454      2.00000
      6      -1.2454      2.00000
      7      -1.2454      2.00000
      8      -0.8256      2.00000
      9      -0.8256      2.00000
     10      -0.5151      2.00000
     11      -0.5151      2.00000
     12      -0.5151      2.00000
     13      -0.2309      2.00000
     14      -0.2309      2.00000
     15      -0.2309      2.00000
     16       0.5808      2.00000
     17       0.6862      2.00000
     18       0.6862      2.00000
     19       1.1387      2.00000
     20       1.1387      2.00000
     21       1.1387      2.00000
     22       4.7442      0.00000
     23       4.7442      0.00000
     24       4.7442      0.00000
     25       9.2196      0.00000
     26       9.2196      0.00000
     27       9.2196      0.00000
     28      12.5906      0.00000

 k-point  76 :       0.4167    0.3333    0.3333
  band No.  band energies     occupation 
      1      -2.5716      2.00000
      2      -2.4088      2.00000
      3      -2.3333      2.00000
      4      -2.3333      2.00000
      5      -1.2245      2.00000
      6      -1.2245      2.00000
      7      -1.1124      2.00000
      8      -0.8914      2.00000
      9      -0.8295      2.00000
     10      -0.6694      2.00000
     11      -0.6149      2.00000
     12      -0.6149      2.00000
     13      -0.0268      2.00000
     14       0.0002      2.00000
     15       0.0002      2.00000
     16       0.4348      2.00000
     17       0.8836      2.00000
     18       1.0927      2.00000
     19       1.0927      2.00000
     20       1.1196      2.00000
     21       1.4572      2.00000
     22       3.5373      2.00000
     23       5.0303      0.00000
     24       5.0303      0.00000
     25       8.5160      0.00000
     26       8.5160      0.00000
     27       9.8876      0.00000
     28      11.5824      0.00000

 k-point  77 :       0.5000    0.3333    0.3333
  band No.  band energies     occupation 
      1      -2.5108      2.00000
      2      -2.5108      2.00000
      3      -2.3500      2.00000
      4      -2.3500      2.00000
      5      -1.2208      2.00000
      6      -1.2208      2.00000
      7      -0.9889      2.00000
      8      -0.9889      2.00000
      9      -0.7764      2.00000
     10      -0.7764      2.00000
     11      -0.6469      2.00000
     12      -0.6469      2.00000
     13       0.1003      2.00000
     14       0.1003      2.00000
     15       0.1999      2.00000
     16       0.1999      2.00000
     17       1.0322      2.00000
     18       1.0322      2.00000
     19       1.0578      2.00000
     20       1.0578      2.00000
     21       2.4363      2.00000
     22       2.4363      2.00000
     23       5.1578      0.00000
     24       5.1578      0.00000
     25       8.2490      0.00000
     26       8.2490      0.00000
     27      10.6801      0.00000
     28      10.6801      0.00000

 k-point  78 :       0.4167    0.4167    0.3333
  band No.  band energies     occupation 
      1      -2.6037      2.00000
      2      -2.4762      2.00000
      3      -2.4762      2.00000
      4      -2.4379      2.00000
      5      -1.1551      2.00000
      6      -1.1040      2.00000
      7      -1.1040      2.00000
      8      -0.9143      2.00000
      9      -0.8832      2.00000
     10      -0.7573      2.00000
     11      -0.7573      2.00000
     12      -0.7340      2.00000
     13       0.2763      2.00000
     14       0.2763      2.00000
     15       0.2772      2.00000
     16       0.7452      2.00000
     17       0.8237      2.00000
     18       1.0687      2.00000
     19       1.0848      2.00000
     20       1.0848      2.00000
     21       2.0268      2.00000
     22       3.9383      2.00000
     23       3.9383      2.00000
     24       4.8315      0.00000
     25       8.2156      0.00000
     26       9.0336      0.00000
     27       9.0336      0.00000
     28      10.5978      0.00000

 k-point  79 :       0.5000    0.4167    0.3333
  band No.  band energies     occupation 
      1      -2.5697      2.00000
      2      -2.5697      2.00000
      3      -2.4859      2.00000
      4      -2.4859      2.00000
      5      -1.1145      2.00000
      6      -1.1145      2.00000
      7      -0.9952      2.00000
      8      -0.9952      2.00000
      9      -0.8498      2.00000
     10      -0.8498      2.00000
     11      -0.7827      2.00000
     12      -0.7827      2.00000
     13       0.4063      2.00000
     14       0.4063      2.00000
     15       0.5419      2.00000
     16       0.5419      2.00000
     17       0.9922      2.00000
     18       0.9922      2.00000
     19       1.0376      2.00000
     20       1.0376      2.00000
     21       2.9080      2.00000
     22       2.9080      2.00000
     23       4.4119      0.00000
     24       4.4119      0.00000
     25       8.4373      0.00000
     26       8.4373      0.00000
     27       9.7435      0.00000
     28       9.7435      0.00000

 k-point  80 :       0.5000    0.5000    0.3333
  band No.  band energies     occupation 
      1      -2.5606      2.00000
      2      -2.5606      2.00000
      3      -2.5606      2.00000
      4      -2.5606      2.00000
      5      -1.0312      2.00000
      6      -1.0312      2.00000
      7      -1.0312      2.00000
      8      -1.0312      2.00000
      9      -0.8578      2.00000
     10      -0.8578      2.00000
     11      -0.8578      2.00000
     12      -0.8578      2.00000
     13       0.6277      2.00000
     14       0.6277      2.00000
     15       0.6277      2.00000
     16       0.6277      2.00000
     17       0.9579      2.00000
     18       0.9579      2.00000
     19       0.9579      2.00000
     20       0.9579      2.00000
     21       3.6024      2.00000
     22       3.6024      2.00000
     23       3.6024      2.00000
     24       3.6024      2.00000
     25       8.9800      0.00000
     26       8.9800      0.00000
     27       8.9800      0.00000
     28       8.9800      0.00000

 k-point  81 :       0.4167    0.4167    0.4167
  band No.  band energies     occupation 
      1      -2.6710      2.00000
      2      -2.5827      2.00000
      3      -2.5827      2.00000
      4      -2.5827      2.00000
      5      -1.0603      2.00000
      6      -1.0603      2.00000
      7      -1.0603      2.00000
      8      -0.9336      2.00000
      9      -0.9336      2.00000
     10      -0.8563      2.00000
     11      -0.8563      2.00000
     12      -0.8563      2.00000
     13       0.5999      2.00000
     14       0.5999      2.00000
     15       0.5999      2.00000
     16       0.9881      2.00000
     17       0.9881      2.00000
     18       1.1158      2.00000
     19       1.1158      2.00000
     20       1.1158      2.00000
     21       2.3854      2.00000
     22       4.0221      2.00000
     23       4.0221      2.00000
     24       4.0221      2.00000
     25       8.3899      0.00000
     26       8.3899      0.00000
     27       8.3899      0.00000
     28       9.6665      0.00000

 k-point  82 :       0.5000    0.4167    0.4167
  band No.  band energies     occupation 
      1      -2.6627      2.00000
      2      -2.6627      2.00000
      3      -2.6185      2.00000
      4      -2.6185      2.00000
      5      -1.0420      2.00000
      6      -1.0420      2.00000
      7      -0.9830      2.00000
      8      -0.9830      2.00000
      9      -0.9243      2.00000
     10      -0.9243      2.00000
     11      -0.8929      2.00000
     12      -0.8929      2.00000
     13       0.7486      2.00000
     14       0.7486      2.00000
     15       0.8666      2.00000
     16       0.8666      2.00000
     17       1.0885      2.00000
     18       1.0885      2.00000
     19       1.0941      2.00000
     20       1.0941      2.00000
     21       3.1375      2.00000
     22       3.1375      2.00000
     23       4.0589      2.00000
     24       4.0589      2.00000
     25       8.1593      0.00000
     26       8.1593      0.00000
     27       8.9146      0.00000
     28       8.9146      0.00000

 k-point  83 :       0.5000    0.5000    0.4167
  band No.  band energies     occupation 
      1      -2.6786      2.00000
      2      -2.6786      2.00000
      3      -2.6786      2.00000
      4      -2.6786      2.00000
      5      -0.9910      2.00000
      6      -0.9910      2.00000
      7      -0.9910      2.00000
      8      -0.9910      2.00000
      9      -0.9463      2.00000
     10      -0.9463      2.00000
     11      -0.9463      2.00000
     12      -0.9463      2.00000
     13       0.9737      2.00000
     14       0.9737      2.00000
     15       0.9737      2.00000
     16       0.9737      2.00000
     17       1.0692      2.00000
     18       1.0692      2.00000
     19       1.0692      2.00000
     20       1.0692      2.00000
     21       3.5682      2.00000
     22       3.5682      2.00000
     23       3.5682      2.00000
     24       3.5682      2.00000
     25       8.3557      0.00000
     26       8.3557      0.00000
     27       8.3557      0.00000
     28       8.3557      0.00000

 k-point  84 :       0.5000    0.5000    0.5000
  band No.  band energies     occupation 
      1      -2.7183      2.00000
      2      -2.7183      2.00000
      3      -2.7183      2.00000
      4      -2.7183      2.00000
      5      -0.9764      2.00000
      6      -0.9764      2.00000
      7      -0.9764      2.00000
      8      -0.9764      2.00000
      9      -0.9764      2.00000
     10      -0.9764      2.00000
     11      -0.9764      2.00000
     12      -0.9764      2.00000
     13       1.1077      2.00000
     14       1.1077      2.00000
     15       1.1077      2.00000
     16       1.1077      2.00000
     17       1.1077      2.00000
     18       1.1077      2.00000
     19       1.1077      2.00000
     20       1.1077      2.00000
     21       3.5499      2.00000
     22       3.5499      2.00000
     23       3.5499      2.00000
     24       3.5499      2.00000
     25       8.1355      0.00000
     26       8.1355      0.00000
     27       8.1355      0.00000
     28       8.1355      0.00000


--------------------------------------------------------------------------------------------------------


 soft charge-density along one line, spin component           1
         0         1         2         3         4         5         6         7         8         9
 total charge-density along one line
 
 pseudopotential strength for first ion, spin component:           1
-11.737  -0.000   0.000  -0.000   0.000   0.048   0.000  -0.000
 -0.000 -11.737   0.000  -0.000   0.000   0.000   0.048  -0.000
  0.000   0.000 -11.725   0.000   0.000  -0.000  -0.000   0.046
 -0.000  -0.000   0.000 -11.737  -0.000   0.000   0.000  -0.000
  0.000   0.000   0.000  -0.000 -11.725  -0.000  -0.000  -0.000
  0.048   0.000  -0.000   0.000  -0.000   0.473  -0.000   0.000
  0.000   0.048  -0.000   0.000  -0.000  -0.000   0.473   0.000
 -0.000  -0.000   0.046  -0.000  -0.000   0.000   0.000   0.473
  0.000   0.000  -0.000   0.048   0.000  -0.000  -0.000   0.000
 -0.000  -0.000  -0.000   0.000   0.046   0.000   0.000   0.000
  0.000   0.000  -0.000   0.000   0.000  -0.000  -0.000   0.000
 -0.000  -0.000   0.000  -0.000  -0.000   0.000   0.000  -0.000
  0.000   0.000  -0.000   0.000  -0.000  -0.000  -0.000   0.000
  0.000   0.000   0.000   0.000   0.000  -0.000  -0.000  -0.000
  0.000   0.000  -0.000   0.000   0.000  -0.000  -0.000   0.000
 -0.000  -0.000   0.000  -0.000   0.000   0.000   0.000  -0.000
 -0.000  -0.000  -0.000  -0.000  -0.000   0.000   0.000   0.000
 -0.000  -0.000   0.000  -0.000  -0.000   0.000   0.000  -0.000
 total augmentation occupancy for first ion, spin component:           1
  1.902  -0.008  -0.003  -0.003  -0.010   0.011   0.007  -0.013   0.001   0.011   0.025  -0.015  -0.000  -0.000   0.000  -0.000
 -0.008   1.969  -0.001  -0.009  -0.001   0.007  -0.037   0.005   0.011  -0.008   0.047  -0.001  -0.000  -0.000  -0.000  -0.000
 -0.003  -0.001   1.936   0.003  -0.021  -0.013   0.005  -0.014  -0.002   0.024  -0.051  -0.053   0.000   0.000   0.000   0.000
 -0.003  -0.009   0.003   1.944  -0.002   0.001   0.011  -0.002   0.004   0.009   0.021  -0.005   0.000   0.000  -0.000   0.000
 -0.010  -0.001  -0.021  -0.002   1.987   0.011  -0.008   0.024   0.009  -0.065   0.078   0.029   0.000   0.000   0.000  -0.000
  0.011   0.007  -0.013   0.001   0.011   0.137  -0.004   0.030   0.003  -0.011   0.020   0.031   0.000  -0.000  -0.000  -0.000
  0.007  -0.037   0.005   0.011  -0.008  -0.004   0.118  -0.008  -0.007   0.015  -0.023   0.019   0.000   0.000  -0.000  -0.000
 -0.013   0.005  -0.014  -0.002   0.024   0.030  -0.008   0.112  -0.000  -0.005   0.125  -0.011   0.000  -0.000  -0.000   0.000
  0.001   0.011  -0.002   0.004   0.009   0.003  -0.007  -0.000   0.085  -0.015  -0.001   0.015   0.000  -0.000   0.000  -0.000
  0.011  -0.008   0.024   0.009  -0.065  -0.011   0.015  -0.005  -0.015   0.079  -0.095   0.023   0.000  -0.000   0.000   0.000
  0.025   0.047  -0.051   0.021   0.078   0.020  -0.023   0.125  -0.001  -0.095   1.122  -0.418  -0.000  -0.000   0.000  -0.000
 -0.015  -0.001  -0.053  -0.005   0.029   0.031   0.019  -0.011   0.015   0.023  -0.418   0.235  -0.000   0.000   0.000   0.000
 -0.000  -0.000   0.000   0.000   0.000   0.000   0.000   0.000   0.000   0.000  -0.000  -0.000   0.125   0.020  -0.010  -0.007
 -0.000  -0.000   0.000   0.000   0.000  -0.000   0.000  -0.000  -0.000  -0.000  -0.000   0.000   0.020   0.093  -0.000  -0.001
  0.000  -0.000   0.000  -0.000   0.000  -0.000  -0.000  -0.000   0.000   0.000   0.000   0.000  -0.010  -0.000   0.204  -0.001
 -0.000  -0.000   0.000   0.000  -0.000  -0.000  -0.000   0.000  -0.000   0.000  -0.000   0.000  -0.007  -0.001  -0.001   0.001
  0.000   0.000   0.000   0.000   0.000   0.000   0.000   0.000  -0.000   0.000  -0.000   0.000  -0.001  -0.006  -0.001   0.000
  0.000  -0.000   0.000  -0.000   0.000  -0.000   0.000   0.000  -0.000   0.000   0.000  -0.000  -0.001  -0.001  -0.011   0.000


------------------------ aborting loop because EDIFF is reached ----------------------------------------




--------------------------------------------------------------------------------------------------------


    CHARGE:  VPU time    1.50: CPU time    1.54
    FORLOC:  VPU time    0.01: CPU time    0.01
    FORNL :  VPU time    6.35: CPU time    6.37
    STRESS:  VPU time   13.45: CPU time   13.52
    FORCOR:  VPU time    0.20: CPU time    0.21
    FORHAR:  VPU time    0.05: CPU time    0.05
    MIXING:  VPU time    0.01: CPU time    0.01


--------------------------------------------------------------------------------------------------------



  FREE ENERGIE OF THE ION-ELECTRON SYSTEM (eV)
  ---------------------------------------------------
  free  energy   TOTEN  =       -10.965073 eV

  energy  without entropy=      -10.964933  energy(sigma->0) =      -10.965003
 

  FORCE on cell =-STRESS in cart. coord.  units (eV/reduce length):
  Direction    X        Y        Z        XY       YZ       ZX
  --------------------------------------------------------------------------------------
  Alpha Z    445.05    445.05    445.05
  Ewald    -1332.53  -1332.53  -1332.53      0.00      0.00      0.00
  Hartree    239.82    239.82    239.82      0.00     -0.00     -0.00
  E(xc)     -233.67   -233.67   -233.67      0.00      0.00      0.00
  Local      429.60    429.60    429.60     -0.00     -0.00      0.00
  n-local   -249.58   -258.06   -260.74      0.43      2.47      0.81
  augment    167.98    167.98    167.98     -0.00     -0.00     -0.00
  Kinetic    553.70    545.01    539.52     -3.25     -0.04     -1.41
  -------------------------------------------------------------------------------------
  Total        6.20      6.20      6.20      0.00      0.00      0.00
  in kB      155.51    155.51    155.51      0.00      0.00      0.00
  external pressure =      155.51 kB  Pullay stress =        0.00 kB


 VOLUME and BASIS-vectors are now :
 -----------------------------------------------------------------------------
  energy-cutoff  :      750.00
  volume of cell :       63.84
      direct lattice vectors                 reciprocal lattice vectors
     3.996695790  0.000000000  0.000000000     0.250206684  0.000000000  0.000000000
     0.000000000  3.996695790  0.000000000     0.000000000  0.250206684  0.000000000
     0.000000000  0.000000000  3.996695790     0.000000000  0.000000000  0.250206684

  length of vectors
     3.996695790  3.996695790  3.996695790     0.250206684  0.250206684  0.250206684


 FORCES acting on ions
    electron-ion (+dipol)            ewald-force                    non-local-force                 convergence-correction
 -----------------------------------------------------------------------------------------------
   -.368E-13 -.316E-13 -.555E-13   -.289E-13 0.335E-14 -.130E-13   0.646E-25 0.123E-24 0.436E-25   -.362E-13 -.268E-13 -.481E-14
   0.270E-12 0.222E-11 0.144E-11   -.671E-14 0.520E-14 -.132E-13   0.129E-25 0.388E-25 -.711E-25   0.248E-13 -.131E-13 -.157E-13
   0.270E-12 -.328E-13 0.467E-11   0.142E-13 -.494E-14 0.130E-13   0.129E-25 0.129E-25 0.258E-25   0.288E-13 -.253E-13 0.191E-13
   -.378E-13 0.274E-12 0.252E-12   0.179E-13 -.309E-14 0.128E-13   0.388E-25 -.388E-25 0.307E-25   -.371E-13 0.720E-15 0.174E-13
 -----------------------------------------------------------------------------------------------
   0.466E-12 0.243E-11 0.630E-11   -.352E-14 0.523E-15 -.477E-15   0.129E-24 0.136E-24 0.291E-25   -.197E-13 -.644E-13 0.160E-13
 
 
 POSITION                                       TOTAL-FORCE (eV/Angst)
 -----------------------------------------------------------------------------------
      0.00000      0.00000      0.00000        -0.000000     -0.000000      0.000000
      1.99835      1.99835      0.00000         0.000000      0.000000      0.000000
      1.99835      0.00000      1.99835        -0.000000      0.000000     -0.000000
      0.00000      1.99835      1.99835         0.000000     -0.000000     -0.000000
 -----------------------------------------------------------------------------------
    total drift:                                0.000000      0.000000      0.000000


--------------------------------------------------------------------------------------------------------



 mean value of Nose-termostat <S>:     1.000 mean value of <T> :     0.000
 mean temperature <T/S>/<1/S>  :     0.000

     LOOP+:  VPU time  316.68: CPU time  318.21
  
  
 General timing and accounting informations for this job:
 ========================================================
  
                  Total CPU time used (sec):      320.283
                            User time (sec):      285.267
                          System time (sec):       35.017
                         Elapsed time (sec):      322.081
  
                   Maximum memory used (kb):      439388.
                   Average memory used (kb):           0.
  
                          Minor page faults:       185019
                          Major page faults:            5
                 Voluntary context switches:         1070
