  32  32   0   0
  0.1097175E+02  0.7054647E-09  0.7054647E-09  0.7054647E-09  0.5000000E-15
  1.000000000000000E-004
  CAR 
 unknown system                          
     16.12461699     -6.50238952  301      4.47774165      1.00000000
     -6.502  0.0000E+00  0.0000E+00
     -6.427  0.0000E+00  0.0000E+00
     -6.352  0.0000E+00  0.0000E+00
     -6.276  0.0000E+00  0.0000E+00
     -6.201  0.0000E+00  0.0000E+00
     -6.125  0.0000E+00  0.0000E+00
     -6.050  0.0000E+00  0.0000E+00
     -5.974  0.0000E+00  0.0000E+00
     -5.899  0.0000E+00  0.0000E+00
     -5.824  0.0000E+00  0.0000E+00
     -5.748  0.0000E+00  0.0000E+00
     -5.673  0.0000E+00  0.0000E+00
     -5.597  0.0000E+00  0.0000E+00
     -5.522  0.4402E-12  0.3320E-13
     -5.446  0.7730E-01  0.5831E-02
     -5.371  0.4639E+00  0.4082E-01
     -5.296  0.9317E+00  0.1111E+00
     -5.220  0.6855E+00  0.1628E+00
     -5.145  0.1678E+01  0.2893E+00
     -5.069  0.2390E+01  0.4696E+00
     -4.994  0.2801E-07  0.4723E+00
     -4.918  0.9279E+00  0.5423E+00
     -4.843  0.2347E+01  0.7193E+00
     -4.768  0.2445E+01  0.9037E+00
     -4.692  0.1813E+01  0.1041E+01
     -4.617  0.1853E+01  0.1184E+01
     -4.541  0.3711E+01  0.1464E+01
     -4.466  0.5618E-02  0.1464E+01
     -4.391  0.2175E+01  0.1628E+01
     -4.315  0.4653E+01  0.1979E+01
     -4.240  0.1855E+01  0.2128E+01
     -4.164  0.1864E+01  0.2269E+01
     -4.089  0.4538E+01  0.2611E+01
     -4.013  0.1020E+01  0.2688E+01
     -3.938  0.1855E+01  0.2828E+01
     -3.863  0.2346E+01  0.3005E+01
     -3.787  0.6590E+01  0.3502E+01
     -3.712  0.1330E+01  0.3609E+01
     -3.636  0.5566E+01  0.4029E+01
     -3.561  0.3711E+01  0.4309E+01
     -3.485  0.7368E+00  0.4365E+01
     -3.410  0.3754E+01  0.4662E+01
     -3.335  0.3832E+01  0.4951E+01
     -3.259  0.5795E+01  0.5388E+01
     -3.184  0.1865E+01  0.5534E+01
     -3.108  0.5556E+01  0.5953E+01
     -3.033  0.1803E+01  0.6089E+01
     -2.957  0.7333E+01  0.6653E+01
     -2.882  0.5561E+01  0.7073E+01
     -2.807  0.2015E+01  0.7225E+01
     -2.731  0.5839E+01  0.7665E+01
     -2.656  0.3897E+01  0.7959E+01
     -2.580  0.2574E+01  0.8153E+01
     -2.505  0.7625E+01  0.8737E+01
     -2.430  0.4069E+01  0.9044E+01
     -2.354  0.8870E+01  0.9713E+01
     -2.279  0.6342E+01  0.1020E+02
     -2.203  0.5053E+01  0.1059E+02
     -2.128  0.4443E+01  0.1092E+02
     -2.052  0.8391E+01  0.1155E+02
     -1.977  0.4688E+00  0.1160E+02
     -1.902  0.1113E+02  0.1244E+02
     -1.826  0.8829E+01  0.1310E+02
     -1.751  0.7449E+01  0.1370E+02
     -1.675  0.1259E+02  0.1465E+02
     -1.600  0.8172E-01  0.1473E+02
     -1.524  0.9242E+01  0.1543E+02
     -1.449  0.8551E+01  0.1607E+02
     -1.374  0.1672E+02  0.1733E+02
     -1.298  0.1244E+02  0.1829E+02
     -1.223  0.9425E+01  0.1904E+02
     -1.147  0.1378E+02  0.2011E+02
     -1.072  0.1703E+02  0.2139E+02
     -0.996  0.2563E+02  0.2335E+02
     -0.921  0.2197E+02  0.2504E+02
     -0.846  0.3408E+02  0.2766E+02
     -0.770  0.2362E+02  0.2945E+02
     -0.695  0.4114E+02  0.3262E+02
     -0.619  0.3688E+02  0.3542E+02
     -0.544  0.3392E+02  0.3802E+02
     -0.469  0.3963E+02  0.4103E+02
     -0.393  0.4370E+02  0.4439E+02
     -0.318  0.3722E+02  0.4725E+02
     -0.242  0.6345E+02  0.5207E+02
     -0.167  0.5935E+02  0.5672E+02
     -0.091  0.5858E+02  0.6121E+02
     -0.016  0.7820E+02  0.6731E+02
      0.059  0.6091E+02  0.7197E+02
      0.135  0.6911E+02  0.7727E+02
      0.210  0.5489E+02  0.8152E+02
      0.286  0.6294E+02  0.8630E+02
      0.361  0.6017E+02  0.9095E+02
      0.437  0.5925E+02  0.9555E+02
      0.512  0.5792E+02  0.9995E+02
      0.587  0.5547E+02  0.1042E+03
      0.663  0.6937E+02  0.1095E+03
      0.738  0.9336E+02  0.1165E+03
      0.814  0.6365E+02  0.1215E+03
      0.889  0.1056E+03  0.1295E+03
      0.965  0.8877E+02  0.1363E+03
      1.040  0.8550E+02  0.1428E+03
      1.115  0.1194E+03  0.1519E+03
      1.191  0.9642E+02  0.1593E+03
      1.266  0.1282E+03  0.1690E+03
      1.342  0.1212E+03  0.1782E+03
      1.417  0.1275E+03  0.1880E+03
      1.492  0.8994E+02  0.1949E+03
      1.568  0.8913E+02  0.2017E+03
      1.643  0.7437E+02  0.2074E+03
      1.719  0.6984E+02  0.2127E+03
      1.794  0.6472E+02  0.2178E+03
      1.870  0.8492E+02  0.2243E+03
      1.945  0.1060E+03  0.2323E+03
      2.020  0.1145E+03  0.2410E+03
      2.096  0.1058E+03  0.2490E+03
      2.171  0.9721E+02  0.2566E+03
      2.247  0.8864E+02  0.2633E+03
      2.322  0.8820E+02  0.2700E+03
      2.398  0.9572E+02  0.2774E+03
      2.473  0.7890E+02  0.2834E+03
      2.548  0.1210E+03  0.2925E+03
      2.624  0.9718E+02  0.3000E+03
      2.699  0.1945E+03  0.3148E+03
      2.775  0.1667E+03  0.3276E+03
      2.850  0.6273E+02  0.3327E+03
      2.926  0.2922E+02  0.3349E+03
      3.001  0.2702E+02  0.3369E+03
      3.076  0.8806E+01  0.3376E+03
      3.152  0.9130E+01  0.3383E+03
      3.227  0.9423E+01  0.3390E+03
      3.303  0.1296E+02  0.3400E+03
      3.378  0.1735E+02  0.3414E+03
      3.453  0.1067E+02  0.3422E+03
      3.529  0.5479E+01  0.3426E+03
      3.604  0.6686E+01  0.3431E+03
      3.680  0.8995E+01  0.3438E+03
      3.755  0.2331E+02  0.3456E+03
      3.831  0.1543E+01  0.3457E+03
      3.906  0.1137E+02  0.3466E+03
      3.981  0.7335E+01  0.3471E+03
      4.057  0.9312E+01  0.3478E+03
      4.132  0.1289E+02  0.3488E+03
      4.208  0.1402E+02  0.3499E+03
      4.283  0.4153E+01  0.3503E+03
      4.359  0.1194E+02  0.3512E+03
      4.434  0.4659E+01  0.3516E+03
      4.509  0.6473E+01  0.3521E+03
      4.585  0.7994E+01  0.3527E+03
      4.660  0.9166E+01  0.3534E+03
      4.736  0.5729E+01  0.3538E+03
      4.811  0.1523E+02  0.3550E+03
      4.887  0.7776E+01  0.3556E+03
      4.962  0.1741E+02  0.3569E+03
      5.037  0.8400E+01  0.3576E+03
      5.113  0.1814E+01  0.3577E+03
      5.188  0.4991E+01  0.3581E+03
      5.264  0.4078E+01  0.3585E+03
      5.339  0.1078E+02  0.3593E+03
      5.415  0.3530E+01  0.3596E+03
      5.490  0.1132E+02  0.3604E+03
      5.565  0.1592E+02  0.3616E+03
      5.641  0.9277E+01  0.3625E+03
      5.716  0.3631E+01  0.3627E+03
      5.792  0.6711E+01  0.3633E+03
      5.867  0.4855E+01  0.3636E+03
      5.942  0.1365E+02  0.3646E+03
      6.018  0.6147E+01  0.3651E+03
      6.093  0.5000E+01  0.3655E+03
      6.169  0.5338E+01  0.3659E+03
      6.244  0.5429E+01  0.3663E+03
      6.320  0.1176E+02  0.3672E+03
      6.395  0.1040E+02  0.3680E+03
      6.470  0.4751E+01  0.3684E+03
      6.546  0.9370E+01  0.3691E+03
      6.621  0.7547E+01  0.3697E+03
      6.697  0.5353E+01  0.3701E+03
      6.772  0.1133E+02  0.3709E+03
      6.848  0.1907E+01  0.3711E+03
      6.923  0.9227E+01  0.3718E+03
      6.998  0.6637E+01  0.3723E+03
      7.074  0.4144E+01  0.3727E+03
      7.149  0.1765E+01  0.3728E+03
      7.225  0.4390E+01  0.3731E+03
      7.300  0.1462E+02  0.3742E+03
      7.376  0.9282E+01  0.3749E+03
      7.451  0.1848E+01  0.3751E+03
      7.526  0.5675E-01  0.3751E+03
      7.602  0.5704E+01  0.3755E+03
      7.677  0.1337E+02  0.3765E+03
      7.753  0.5264E+01  0.3769E+03
      7.828  0.7131E+01  0.3775E+03
      7.903  0.0000E+00  0.3775E+03
      7.979  0.3614E+01  0.3777E+03
      8.054  0.3945E+01  0.3780E+03
      8.130  0.6211E+01  0.3785E+03
      8.205  0.3971E+01  0.3788E+03
      8.281  0.6627E+01  0.3793E+03
      8.356  0.1462E+01  0.3794E+03
      8.431  0.5566E+01  0.3798E+03
      8.507  0.9228E+01  0.3805E+03
      8.582  0.1941E+01  0.3807E+03
      8.658  0.3983E+01  0.3810E+03
      8.733  0.7099E+01  0.3815E+03
      8.809  0.5218E+01  0.3819E+03
      8.884  0.7466E+01  0.3825E+03
      8.959  0.1524E+02  0.3837E+03
      9.035  0.7422E+01  0.3842E+03
      9.110  0.5638E+01  0.3847E+03
      9.186  0.6909E+01  0.3852E+03
      9.261  0.6471E+01  0.3857E+03
      9.337  0.1161E+02  0.3866E+03
      9.412  0.1359E+02  0.3877E+03
      9.487  0.9451E+01  0.3884E+03
      9.563  0.7878E+01  0.3890E+03
      9.638  0.8173E+01  0.3896E+03
      9.714  0.4736E+01  0.3900E+03
      9.789  0.5663E+01  0.3904E+03
      9.864  0.1335E+02  0.3914E+03
      9.940  0.1265E+02  0.3924E+03
     10.015  0.5082E+01  0.3928E+03
     10.091  0.1085E+02  0.3936E+03
     10.166  0.1449E+02  0.3947E+03
     10.242  0.1846E+01  0.3949E+03
     10.317  0.1088E+02  0.3957E+03
     10.392  0.1093E+02  0.3965E+03
     10.468  0.1754E+01  0.3967E+03
     10.543  0.8957E+01  0.3974E+03
     10.619  0.3202E+01  0.3976E+03
     10.694  0.1099E+02  0.3985E+03
     10.770  0.9168E+01  0.3992E+03
     10.845  0.4617E+01  0.3996E+03
     10.920  0.8932E+01  0.4003E+03
     10.996  0.1132E+02  0.4011E+03
     11.071  0.4786E+01  0.4015E+03
     11.147  0.6670E+01  0.4020E+03
     11.222  0.9082E+01  0.4027E+03
     11.298  0.7432E+01  0.4033E+03
     11.373  0.7398E+01  0.4038E+03
     11.448  0.5522E+01  0.4043E+03
     11.524  0.4192E+01  0.4046E+03
     11.599  0.1233E+02  0.4055E+03
     11.675  0.1460E+01  0.4056E+03
     11.750  0.7197E+01  0.4062E+03
     11.825  0.6888E+01  0.4067E+03
     11.901  0.3814E+01  0.4070E+03
     11.976  0.1103E+02  0.4078E+03
     12.052  0.5638E+01  0.4083E+03
     12.127  0.1451E+02  0.4094E+03
     12.203  0.4664E+01  0.4098E+03
     12.278  0.9900E+01  0.4106E+03
     12.353  0.8328E+01  0.4112E+03
     12.429  0.8863E+01  0.4119E+03
     12.504  0.6457E+01  0.4124E+03
     12.580  0.6150E+01  0.4129E+03
     12.655  0.9308E+01  0.4136E+03
     12.731  0.6924E+01  0.4141E+03
     12.806  0.1039E+02  0.4149E+03
     12.881  0.1384E+02  0.4159E+03
     12.957  0.1605E+02  0.4172E+03
     13.032  0.1030E+02  0.4179E+03
     13.108  0.4663E+01  0.4183E+03
     13.183  0.9997E+01  0.4191E+03
     13.259  0.8893E+01  0.4198E+03
     13.334  0.5805E+01  0.4202E+03
     13.409  0.1523E+02  0.4214E+03
     13.485  0.1028E+02  0.4222E+03
     13.560  0.1446E+02  0.4233E+03
     13.636  0.7817E+01  0.4239E+03
     13.711  0.9890E+01  0.4246E+03
     13.786  0.1139E+02  0.4255E+03
     13.862  0.1036E+02  0.4262E+03
     13.937  0.7225E+01  0.4268E+03
     14.013  0.1200E+02  0.4277E+03
     14.088  0.9304E+01  0.4285E+03
     14.164  0.7497E+01  0.4290E+03
     14.239  0.1086E+02  0.4299E+03
     14.314  0.6429E+01  0.4303E+03
     14.390  0.5562E+01  0.4308E+03
     14.465  0.2767E+01  0.4310E+03
     14.541  0.8340E+01  0.4316E+03
     14.616  0.0000E+00  0.4316E+03
     14.692  0.0000E+00  0.4316E+03
     14.767  0.5522E+00  0.4317E+03
     14.842  0.2540E+01  0.4319E+03
     14.918  0.0000E+00  0.4319E+03
     14.993  0.0000E+00  0.4319E+03
     15.069  0.1459E-03  0.4319E+03
     15.144  0.1855E+01  0.4320E+03
     15.220  0.0000E+00  0.4320E+03
     15.295  0.0000E+00  0.4320E+03
     15.370  0.0000E+00  0.4320E+03
     15.446  0.0000E+00  0.4320E+03
     15.521  0.0000E+00  0.4320E+03
     15.597  0.0000E+00  0.4320E+03
     15.672  0.0000E+00  0.4320E+03
     15.748  0.0000E+00  0.4320E+03
     15.823  0.0000E+00  0.4320E+03
     15.898  0.0000E+00  0.4320E+03
     15.974  0.0000E+00  0.4320E+03
     16.049  0.0000E+00  0.4320E+03
     16.125  0.0000E+00  0.4320E+03
