   32   32    1    1
  0.1097175E+02  0.7054647E-09  0.7054647E-09  0.7054647E-09  0.5000000E-15
  1.000000000000000E-004
  CAR 
 unknown system                          
  352   20  216
 
  0.0000000E+00  0.0000000E+00  0.0000000E+00  0.2915452E-02
   1       -5.4739
   2       -2.5853
   3       -2.5853
   4       -2.5853
   5       -2.5853
   6       -2.5853
   7       -2.5853
   8       -1.0735
   9       -1.0735
  10       -1.0735
  11       -1.0735
  12       -0.8989
  13       -0.8989
  14       -0.8989
  15       -0.6253
  16       -0.6253
  17       -0.6253
  18       -0.6253
  19       -0.6253
  20       -0.6253
  21       -0.6253
  22       -0.6253
  23       -0.6253
  24       -0.6253
  25       -0.6253
  26       -0.6253
  27       -0.3963
  28       -0.3963
  29       -0.3963
  30       -0.0898
  31       -0.0898
  32       -0.0898
  33       -0.0898
  34       -0.0898
  35       -0.0898
  36        0.3601
  37        0.3601
  38        0.3601
  39        0.3601
  40        0.3601
  41        0.3601
  42        0.5934
  43        0.5934
  44        0.5934
  45        0.5934
  46        0.5934
  47        0.5934
  48        0.5934
  49        0.5934
  50        0.5934
  51        0.5934
  52        0.5934
  53        0.5934
  54        0.5981
  55        0.5981
  56        0.5981
  57        0.5981
  58        0.5981
  59        0.5981
  60        0.5981
  61        0.5981
  62        0.5981
  63        0.5981
  64        0.5981
  65        0.5981
  66        0.8265
  67        0.8265
  68        0.8265
  69        0.8265
  70        0.8265
  71        0.8265
  72        0.8265
  73        0.8265
  74        0.8265
  75        0.8265
  76        0.8265
  77        0.8265
  78        1.1283
  79        1.1283
  80        1.1283
  81        1.1283
  82        1.1283
  83        1.1283
  84        1.1283
  85        1.1283
  86        1.1642
  87        1.1642
  88        1.1642
  89        1.5806
  90        1.5806
  91        1.5806
  92        1.5806
  93        1.5806
  94        1.5806
  95        1.7244
  96        1.7244
  97        1.7244
  98        1.7244
  99        1.7244
 100        1.7244
 101        1.7244
 102        1.7244
 103        1.7244
 104        1.7244
 105        1.7244
 106        1.7244
 107        1.9030
 108        1.9030
 109        1.9030
 110        1.9030
 111        1.9030
 112        1.9030
 113        1.9030
 114        1.9030
 115        1.9030
 116        1.9030
 117        1.9030
 118        1.9030
 119        2.0445
 120        2.0445
 121        2.0445
 122        2.0445
 123        2.0445
 124        2.0445
 125        2.0838
 126        2.0838
 127        2.0838
 128        2.0838
 129        2.0838
 130        2.0838
 131        2.0838
 132        2.0838
 133        2.0838
 134        2.0838
 135        2.0838
 136        2.0838
 137        2.0926
 138        2.0926
 139        2.3969
 140        2.3969
 141        2.3969
 142        2.3969
 143        2.3969
 144        2.3969
 145        2.7083
 146        2.7083
 147        2.7083
 148        2.7241
 149        2.7241
 150        2.7241
 151        2.7241
 152        2.7241
 153        2.7241
 154        2.7241
 155        2.7241
 156        2.8815
 157        2.8815
 158        2.8815
 159        2.8815
 160        2.8815
 161        2.8815
 162        2.8823
 163        2.8823
 164        2.8823
 165        2.8823
 166        2.8823
 167        2.8823
 168        3.2345
 169        3.2345
 170        3.2345
 171        3.2345
 172        4.1647
 173        4.1647
 174        4.1647
 175        4.1647
 176        4.1647
 177        4.1647
 178        4.1647
 179        4.1647
 180        4.1647
 181        4.1647
 182        4.1647
 183        4.1647
 184        5.9109
 185        5.9109
 186        5.9109
 187        8.5906
 188        8.5906
 189        8.5906
 190        8.5906
 191       10.9603
 192       10.9603
 193       10.9603
 194       10.9603
 195       10.9603
 196       10.9603
 197       10.9603
 198       10.9603
 199       10.9603
 200       10.9603
 201       10.9603
 202       10.9603
 203       12.1039
 204       12.1039
 205       12.1039
 206       13.1451
 207       13.1451
 208       13.1451
 209       13.1451
 210       13.1451
 211       13.1451
 212       14.0097
 213       14.0097
 214       14.0097
 215       14.0097
 216       14.0097
 
  0.1428571E+00  0.0000000E+00  0.0000000E+00  0.1749271E-01
   1       -5.4084
   2       -3.2668
   3       -2.5325
   4       -2.5325
   5       -2.5325
   6       -2.5325
   7       -1.9284
   8       -1.0573
   9       -1.0573
  10       -1.0573
  11       -1.0573
  12       -1.0073
  13       -1.0073
  14       -1.0073
  15       -1.0073
  16       -0.8976
  17       -0.8670
  18       -0.8670
  19       -0.6590
  20       -0.6590
  21       -0.6590
  22       -0.6590
  23       -0.3779
  24       -0.3768
  25       -0.3768
  26       -0.3002
  27       -0.3002
  28       -0.3002
  29       -0.3002
  30       -0.1432
  31       -0.1432
  32       -0.0648
  33       -0.0648
  34       -0.0648
  35       -0.0648
  36        0.1878
  37        0.3258
  38        0.3258
  39        0.3680
  40        0.3680
  41        0.3680
  42        0.3680
  43        0.5347
  44        0.5640
  45        0.5640
  46        0.5640
  47        0.5640
  48        0.5675
  49        0.5675
  50        0.5675
  51        0.5675
  52        0.5961
  53        0.5961
  54        0.5961
  55        0.5961
  56        0.6187
  57        0.6187
  58        0.6187
  59        0.6187
  60        0.6708
  61        0.6708
  62        0.6708
  63        0.6708
  64        0.6790
  65        0.6790
  66        0.6790
  67        0.6790
  68        0.8444
  69        0.8444
  70        0.8444
  71        0.8444
  72        0.9037
  73        0.9037
  74        0.9348
  75        0.9348
  76        0.9348
  77        0.9348
  78        1.1146
  79        1.1146
  80        1.1146
  81        1.1146
  82        1.1435
  83        1.1462
  84        1.1462
  85        1.1462
  86        1.1462
  87        1.1807
  88        1.1807
  89        1.4957
  90        1.4957
  91        1.4957
  92        1.4957
  93        1.6140
  94        1.6558
  95        1.6558
  96        1.6558
  97        1.6558
  98        1.6839
  99        1.7221
 100        1.7221
 101        1.7373
 102        1.7373
 103        1.7373
 104        1.7373
 105        1.7835
 106        1.7835
 107        1.7835
 108        1.7835
 109        1.9028
 110        1.9028
 111        1.9028
 112        1.9028
 113        1.9706
 114        1.9706
 115        1.9706
 116        1.9706
 117        2.0025
 118        2.0025
 119        2.0025
 120        2.0025
 121        2.0442
 122        2.0442
 123        2.0442
 124        2.0442
 125        2.0737
 126        2.0908
 127        2.0908
 128        2.0952
 129        2.0952
 130        2.1001
 131        2.1545
 132        2.1545
 133        2.1545
 134        2.1545
 135        2.1957
 136        2.1957
 137        2.1957
 138        2.1957
 139        2.3285
 140        2.4200
 141        2.4200
 142        2.4200
 143        2.4200
 144        2.4503
 145        2.4503
 146        2.4503
 147        2.4503
 148        2.4655
 149        2.6839
 150        2.6839
 151        2.7004
 152        2.7040
 153        2.7040
 154        2.7040
 155        2.7040
 156        2.7523
 157        2.7523
 158        2.8513
 159        2.8513
 160        2.8513
 161        2.8513
 162        2.8527
 163        2.8527
 164        2.8815
 165        2.8815
 166        2.8823
 167        2.8823
 168        3.4473
 169        3.4473
 170        3.4473
 171        3.4473
 172        3.6926
 173        3.6926
 174        3.6926
 175        3.6926
 176        4.1533
 177        4.1533
 178        4.1533
 179        4.1533
 180        4.7727
 181        4.7727
 182        4.7727
 183        4.7727
 184        5.5188
 185        6.0974
 186        6.0974
 187        8.7640
 188        8.7640
 189        8.7640
 190        8.7640
 191        9.9275
 192        9.9275
 193       10.1843
 194       10.1843
 195       10.1843
 196       10.1843
 197       11.0497
 198       11.0497
 199       11.0497
 200       11.0497
 201       12.0517
 202       12.0517
 203       12.1254
 204       12.1254
 205       12.6218
 206       12.9738
 207       12.9738
 208       13.5136
 209       13.5136
 210       13.5136
 211       13.5136
 212       13.6685
 213       13.6685
 214       13.6687
 215       13.6703
 216       13.7809
 
  0.2857143E+00  0.0000000E+00  0.0000000E+00  0.1749271E-01
   1       -5.2130
   2       -3.9015
   3       -2.3768
   4       -2.3768
   5       -2.3768
   6       -2.3768
   7       -1.4116
   8       -1.4116
   9       -1.4116
  10       -1.4116
  11       -1.4025
  12       -1.0100
  13       -1.0100
  14       -1.0100
  15       -1.0100
  16       -0.9029
  17       -0.7748
  18       -0.7748
  19       -0.7418
  20       -0.7418
  21       -0.7418
  22       -0.7418
  23       -0.3234
  24       -0.3180
  25       -0.3180
  26       -0.2811
  27       -0.2811
  28       -0.0460
  29       -0.0460
  30       -0.0460
  31       -0.0460
  32        0.0068
  33        0.0068
  34        0.0068
  35        0.0068
  36        0.0263
  37        0.1016
  38        0.1016
  39        0.3911
  40        0.3911
  41        0.3911
  42        0.3911
  43        0.4950
  44        0.4950
  45        0.4950
  46        0.4950
  47        0.5119
  48        0.5119
  49        0.5119
  50        0.5119
  51        0.5198
  52        0.5198
  53        0.5198
  54        0.5198
  55        0.6036
  56        0.6036
  57        0.6036
  58        0.6036
  59        0.6256
  60        0.6256
  61        0.6256
  62        0.6256
  63        0.7028
  64        0.8556
  65        0.8556
  66        0.8556
  67        0.8556
  68        0.9103
  69        0.9103
  70        0.9103
  71        0.9103
  72        1.0172
  73        1.0172
  74        1.0172
  75        1.0172
  76        1.0754
  77        1.0754
  78        1.0754
  79        1.0754
  80        1.0823
  81        1.1991
  82        1.1991
  83        1.1991
  84        1.1991
  85        1.2297
  86        1.2297
  87        1.2541
  88        1.2541
  89        1.3501
  90        1.3501
  91        1.3501
  92        1.3501
  93        1.5263
  94        1.5263
  95        1.5263
  96        1.5263
  97        1.5598
  98        1.5598
  99        1.7096
 100        1.8151
 101        1.8151
 102        1.8151
 103        1.8151
 104        1.8767
 105        1.8767
 106        1.8767
 107        1.8767
 108        1.9035
 109        1.9035
 110        1.9035
 111        1.9035
 112        1.9502
 113        1.9502
 114        1.9502
 115        1.9502
 116        2.0079
 117        2.0079
 118        2.0079
 119        2.0079
 120        2.0186
 121        2.0295
 122        2.0313
 123        2.0313
 124        2.0313
 125        2.0313
 126        2.0383
 127        2.0383
 128        2.0383
 129        2.0383
 130        2.1224
 131        2.2091
 132        2.2091
 133        2.2640
 134        2.2898
 135        2.2898
 136        2.2902
 137        2.2902
 138        2.2902
 139        2.2902
 140        2.3334
 141        2.3334
 142        2.3334
 143        2.3334
 144        2.4358
 145        2.4358
 146        2.5246
 147        2.5246
 148        2.5246
 149        2.5246
 150        2.5311
 151        2.6122
 152        2.6122
 153        2.6450
 154        2.6450
 155        2.6450
 156        2.6450
 157        2.6771
 158        2.7641
 159        2.7641
 160        2.7641
 161        2.7641
 162        2.7693
 163        2.7693
 164        2.8816
 165        2.8816
 166        2.8822
 167        2.8822
 168        3.3142
 169        3.3142
 170        3.3142
 171        3.3142
 172        3.7205
 173        3.7205
 174        3.7205
 175        3.7205
 176        4.1161
 177        4.1161
 178        4.1161
 179        4.1161
 180        4.6196
 181        5.5519
 182        5.5519
 183        5.5519
 184        5.5519
 185        6.5858
 186        6.5858
 187        8.8983
 188        8.8983
 189        8.8983
 190        8.8983
 191        8.9598
 192        8.9598
 193        9.2693
 194        9.2693
 195        9.2693
 196        9.2693
 197       11.3125
 198       11.3125
 199       11.3125
 200       11.3125
 201       12.1914
 202       12.1914
 203       12.3252
 204       12.3252
 205       12.3252
 206       12.3252
 207       12.7035
 208       12.7035
 209       12.9850
 210       12.9850
 211       12.9850
 212       12.9850
 213       13.1953
 214       13.1953
 215       13.7661
 216       13.7661
 
  0.4285714E+00  0.0000000E+00  0.0000000E+00  0.1749271E-01
   1       -4.8912
   2       -4.4500
   3       -2.1263
   4       -2.1263
   5       -2.1263
   6       -2.1263
   7       -1.7963
   8       -1.7963
   9       -1.7963
  10       -1.7963
  11       -1.0846
  12       -0.9451
  13       -0.9356
  14       -0.9356
  15       -0.9356
  16       -0.9356
  17       -0.8417
  18       -0.8417
  19       -0.8417
  20       -0.8417
  21       -0.6323
  22       -0.6323
  23       -0.4580
  24       -0.4580
  25       -0.2351
  26       -0.2193
  27       -0.2193
  28       -0.1169
  29       -0.0798
  30       -0.0798
  31        0.1063
  32        0.1063
  33        0.1063
  34        0.1063
  35        0.1221
  36        0.1221
  37        0.1221
  38        0.1221
  39        0.3739
  40        0.3739
  41        0.3739
  42        0.3739
  43        0.3953
  44        0.3953
  45        0.3953
  46        0.3953
  47        0.4270
  48        0.4270
  49        0.4270
  50        0.4270
  51        0.4718
  52        0.4718
  53        0.4718
  54        0.4718
  55        0.6135
  56        0.6135
  57        0.6135
  58        0.6135
  59        0.6224
  60        0.6224
  61        0.6224
  62        0.6224
  63        0.8556
  64        0.9471
  65        0.9471
  66        0.9471
  67        0.9471
  68        0.9845
  69        1.0166
  70        1.0166
  71        1.0166
  72        1.0166
  73        1.1043
  74        1.1043
  75        1.1043
  76        1.1043
  77        1.1894
  78        1.1894
  79        1.1894
  80        1.1894
  81        1.2146
  82        1.2146
  83        1.2146
  84        1.2146
  85        1.2840
  86        1.2840
  87        1.2840
  88        1.2840
  89        1.3105
  90        1.3105
  91        1.3960
  92        1.3960
  93        1.3960
  94        1.3960
  95        1.4214
  96        1.4214
  97        1.5722
  98        1.5722
  99        1.5722
 100        1.5722
 101        1.6384
 102        1.6384
 103        1.8242
 104        1.9079
 105        1.9079
 106        1.9079
 107        1.9079
 108        1.9166
 109        1.9166
 110        1.9166
 111        1.9166
 112        1.9212
 113        1.9212
 114        1.9212
 115        1.9212
 116        1.9323
 117        1.9606
 118        1.9606
 119        1.9606
 120        1.9606
 121        2.0017
 122        2.0017
 123        2.0017
 124        2.0017
 125        2.0142
 126        2.0142
 127        2.0142
 128        2.0142
 129        2.0425
 130        2.0425
 131        2.1584
 132        2.2063
 133        2.3573
 134        2.3573
 135        2.4293
 136        2.4293
 137        2.4293
 138        2.4293
 139        2.4755
 140        2.4755
 141        2.4855
 142        2.4855
 143        2.4855
 144        2.4855
 145        2.4992
 146        2.4992
 147        2.5512
 148        2.5512
 149        2.5512
 150        2.5512
 151        2.5902
 152        2.6356
 153        2.6356
 154        2.6356
 155        2.6356
 156        2.6397
 157        2.6397
 158        2.6397
 159        2.6862
 160        2.7293
 161        2.7293
 162        2.7293
 163        2.7293
 164        2.8818
 165        2.8818
 166        2.8820
 167        2.8820
 168        2.9973
 169        2.9973
 170        2.9973
 171        2.9973
 172        3.5987
 173        3.9179
 174        3.9179
 175        3.9179
 176        3.9179
 177        4.0432
 178        4.0432
 179        4.0432
 180        4.0432
 181        6.5130
 182        6.5130
 183        6.5130
 184        6.5130
 185        7.2646
 186        7.2646
 187        7.6412
 188        7.6412
 189        7.6412
 190        7.6412
 191        8.0668
 192        8.0668
 193       10.0663
 194       10.0663
 195       10.0663
 196       10.0663
 197       11.1023
 198       11.1023
 199       11.1023
 200       11.1023
 201       11.7346
 202       11.7346
 203       11.7346
 204       11.7346
 205       12.2980
 206       12.2980
 207       12.2980
 208       12.2980
 209       12.3061
 210       12.3061
 211       12.4756
 212       12.4756
 213       14.0284
 214       14.0284
 215       14.0284
 216       14.0284
 
  0.1428571E+00  0.1428571E+00  0.0000000E+00  0.3498542E-01
   1       -5.3431
   2       -3.2103
   3       -3.2103
   4       -2.4809
   5       -2.4809
   6       -1.8798
   7       -1.8798
   8       -1.4890
   9       -1.0929
  10       -1.0929
  11       -1.0155
  12       -1.0155
  13       -1.0155
  14       -1.0155
  15       -0.9926
  16       -0.9926
  17       -0.8653
  18       -0.8653
  19       -0.8358
  20       -0.5716
  21       -0.5716
  22       -0.3586
  23       -0.3586
  24       -0.3578
  25       -0.3562
  26       -0.3562
  27       -0.3562
  28       -0.3562
  29       -0.1230
  30       -0.1230
  31       -0.1166
  32       -0.1166
  33       -0.0999
  34       -0.0393
  35       -0.0393
  36        0.1985
  37        0.1985
  38        0.3128
  39        0.3128
  40        0.3334
  41        0.3334
  42        0.3766
  43        0.3766
  44        0.5060
  45        0.5060
  46        0.5261
  47        0.5261
  48        0.5397
  49        0.5397
  50        0.5542
  51        0.5882
  52        0.6219
  53        0.6219
  54        0.6219
  55        0.6219
  56        0.6358
  57        0.6358
  58        0.6662
  59        0.6662
  60        0.6662
  61        0.6662
  62        0.7040
  63        0.7331
  64        0.7331
  65        0.7331
  66        0.7331
  67        0.7792
  68        0.7792
  69        0.8676
  70        0.8676
  71        0.9000
  72        0.9000
  73        0.9477
  74        0.9477
  75        0.9477
  76        0.9477
  77        1.0622
  78        1.0734
  79        1.0734
  80        1.1202
  81        1.1202
  82        1.1316
  83        1.1591
  84        1.1591
  85        1.1767
  86        1.1767
  87        1.1885
  88        1.1959
  89        1.4427
  90        1.4427
  91        1.5173
  92        1.5173
  93        1.5666
  94        1.5666
  95        1.6544
  96        1.6544
  97        1.6544
  98        1.6544
  99        1.7024
 100        1.7198
 101        1.7198
 102        1.7198
 103        1.7198
 104        1.7223
 105        1.7223
 106        1.8086
 107        1.8109
 108        1.8109
 109        1.8323
 110        1.8323
 111        1.8455
 112        1.8455
 113        1.8887
 114        2.0401
 115        2.0401
 116        2.0684
 117        2.0762
 118        2.0762
 119        2.0857
 120        2.0857
 121        2.0912
 122        2.0912
 123        2.0912
 124        2.0912
 125        2.0947
 126        2.0947
 127        2.0949
 128        2.0949
 129        2.0953
 130        2.1452
 131        2.1452
 132        2.1790
 133        2.1790
 134        2.2008
 135        2.2008
 136        2.2581
 137        2.2581
 138        2.2581
 139        2.2581
 140        2.2728
 141        2.3392
 142        2.3392
 143        2.3419
 144        2.3419
 145        2.4308
 146        2.4308
 147        2.5056
 148        2.5056
 149        2.6540
 150        2.6589
 151        2.6589
 152        2.6602
 153        2.7142
 154        2.7142
 155        2.7169
 156        2.7169
 157        2.7355
 158        2.7355
 159        2.8248
 160        2.8248
 161        2.8509
 162        2.8509
 163        2.8518
 164        2.8518
 165        2.8527
 166        2.8527
 167        2.8632
 168        3.2151
 169        3.2151
 170        3.3068
 171        3.6780
 172        3.6780
 173        3.6780
 174        3.6780
 175        3.8965
 176        3.8965
 177        4.2075
 178        4.2075
 179        4.7686
 180        4.7686
 181        4.7686
 182        4.7686
 183        5.4692
 184        5.7040
 185        5.7040
 186        6.2716
 187        8.6222
 188        8.6222
 189        9.2144
 190        9.2144
 191        9.2637
 192        9.2637
 193       10.0227
 194       10.0227
 195       10.0405
 196       10.0405
 197       10.5160
 198       10.5160
 199       11.1449
 200       11.1449
 201       12.1371
 202       12.1371
 203       12.1466
 204       12.6499
 205       12.6499
 206       12.8447
 207       12.8447
 208       12.8447
 209       12.8447
 210       12.8658
 211       13.1579
 212       13.1579
 213       13.6615
 214       13.6615
 215       14.2166
 216       14.2166
 
  0.2857143E+00  0.1428571E+00  0.0000000E+00  0.6997085E-01
   1       -5.1483
   2       -3.8420
   3       -3.0429
   4       -2.3289
   5       -2.3289
   6       -1.9692
   7       -1.7372
   8       -1.3977
   9       -1.3977
  10       -1.3581
  11       -1.1020
  12       -1.1020
  13       -1.0374
  14       -1.0374
  15       -0.8983
  16       -0.8983
  17       -0.8922
  18       -0.8690
  19       -0.7715
  20       -0.7451
  21       -0.4855
  22       -0.4855
  23       -0.3050
  24       -0.3007
  25       -0.3005
  26       -0.2667
  27       -0.2557
  28       -0.2279
  29       -0.1132
  30       -0.1132
  31       -0.0691
  32       -0.0393
  33        0.0335
  34        0.0335
  35        0.0388
  36        0.0395
  37        0.1017
  38        0.1128
  39        0.2303
  40        0.2754
  41        0.3553
  42        0.3998
  43        0.4021
  44        0.4021
  45        0.4082
  46        0.4082
  47        0.4345
  48        0.4802
  49        0.5137
  50        0.5137
  51        0.5535
  52        0.5597
  53        0.5597
  54        0.5958
  55        0.6360
  56        0.6720
  57        0.6720
  58        0.7050
  59        0.7243
  60        0.7243
  61        0.7379
  62        0.7379
  63        0.7701
  64        0.7753
  65        0.7933
  66        0.7933
  67        0.8826
  68        0.8882
  69        0.9242
  70        0.9242
  71        0.9838
  72        0.9838
  73        1.0064
  74        1.0064
  75        1.0259
  76        1.0259
  77        1.0761
  78        1.1033
  79        1.1033
  80        1.1479
  81        1.2037
  82        1.2037
  83        1.2100
  84        1.2330
  85        1.2411
  86        1.2411
  87        1.2411
  88        1.2419
  89        1.3281
  90        1.3281
  91        1.3661
  92        1.3956
  93        1.5043
  94        1.5175
  95        1.5175
  96        1.5605
  97        1.5920
  98        1.5920
  99        1.6981
 100        1.6981
 101        1.7247
 102        1.7410
 103        1.7645
 104        1.8047
 105        1.8062
 106        1.8062
 107        1.8082
 108        1.8180
 109        1.8180
 110        1.8656
 111        1.8656
 112        1.8839
 113        1.8876
 114        1.9180
 115        1.9180
 116        1.9346
 117        1.9436
 118        2.0200
 119        2.0232
 120        2.0232
 121        2.0674
 122        2.0782
 123        2.0782
 124        2.0944
 125        2.0980
 126        2.1148
 127        2.1158
 128        2.1686
 129        2.1686
 130        2.1993
 131        2.2151
 132        2.2167
 133        2.2452
 134        2.2452
 135        2.2699
 136        2.2893
 137        2.3073
 138        2.3714
 139        2.3779
 140        2.3795
 141        2.3818
 142        2.3818
 143        2.3846
 144        2.3846
 145        2.4048
 146        2.4200
 147        2.5131
 148        2.5131
 149        2.5706
 150        2.5908
 151        2.6205
 152        2.6330
 153        2.6535
 154        2.6535
 155        2.6861
 156        2.6861
 157        2.6903
 158        2.6982
 159        2.7508
 160        2.7508
 161        2.7641
 162        2.7648
 163        2.7692
 164        2.8504
 165        2.8521
 166        2.8526
 167        2.8532
 168        3.0027
 169        3.2984
 170        3.2984
 171        3.2992
 172        3.2992
 173        3.6330
 174        3.6330
 175        3.7398
 176        4.2991
 177        4.2991
 178        4.7499
 179        4.7499
 180        4.8146
 181        4.8994
 182        5.5576
 183        5.5576
 184        6.1790
 185        6.3217
 186        6.7363
 187        8.0629
 188        8.3902
 189        8.8443
 190        8.8443
 191        8.9053
 192        8.9053
 193        9.0631
 194        9.7974
 195        9.9210
 196        9.9210
 197       10.3013
 198       10.6110
 199       10.6110
 200       11.5407
 201       11.5407
 202       12.0461
 203       12.0971
 204       12.1168
 205       12.1168
 206       12.2110
 207       12.3887
 208       12.7357
 209       12.9148
 210       13.2127
 211       13.2127
 212       13.2781
 213       13.3249
 214       13.3888
 215       13.9426
 216       14.0064
 
  0.4285714E+00  0.1428571E+00  0.0000000E+00  0.6997085E-01
   1       -4.8277
   2       -4.3882
   3       -2.7710
   4       -2.4065
   5       -2.0851
   6       -2.0851
   7       -1.7661
   8       -1.7661
   9       -1.5106
  10       -1.2189
  11       -1.0903
  12       -1.0903
  13       -1.0656
  14       -1.0656
  15       -1.0443
  16       -0.9085
  17       -0.7770
  18       -0.7770
  19       -0.6351
  20       -0.6351
  21       -0.6264
  22       -0.6048
  23       -0.4484
  24       -0.4325
  25       -0.2180
  26       -0.2047
  27       -0.2034
  28       -0.1014
  29       -0.0704
  30       -0.0659
  31       -0.0301
  32       -0.0097
  33        0.0731
  34        0.0731
  35        0.0811
  36        0.1283
  37        0.1283
  38        0.1380
  39        0.2177
  40        0.2360
  41        0.2819
  42        0.3032
  43        0.3032
  44        0.3513
  45        0.3519
  46        0.3519
  47        0.3896
  48        0.4328
  49        0.4432
  50        0.4432
  51        0.4973
  52        0.4973
  53        0.5718
  54        0.5732
  55        0.5884
  56        0.6449
  57        0.6985
  58        0.6985
  59        0.7164
  60        0.7164
  61        0.8258
  62        0.8258
  63        0.8291
  64        0.8549
  65        0.8657
  66        0.9202
  67        0.9202
  68        0.9811
  69        1.0111
  70        1.0111
  71        1.0120
  72        1.0677
  73        1.0677
  74        1.0946
  75        1.0946
  76        1.1074
  77        1.1074
  78        1.1746
  79        1.1969
  80        1.1969
  81        1.2086
  82        1.2086
  83        1.2156
  84        1.2770
  85        1.2770
  86        1.2941
  87        1.3123
  88        1.3145
  89        1.3342
  90        1.3342
  91        1.3901
  92        1.3901
  93        1.4105
  94        1.4225
  95        1.4586
  96        1.4586
  97        1.4729
  98        1.4729
  99        1.5227
 100        1.5227
 101        1.5880
 102        1.6144
 103        1.7343
 104        1.7447
 105        1.7447
 106        1.7591
 107        1.7782
 108        1.7782
 109        1.8181
 110        1.8404
 111        1.8825
 112        1.9133
 113        1.9133
 114        1.9382
 115        1.9663
 116        1.9833
 117        1.9833
 118        1.9880
 119        2.0019
 120        2.0293
 121        2.0325
 122        2.0527
 123        2.0826
 124        2.0955
 125        2.1012
 126        2.1108
 127        2.1108
 128        2.1435
 129        2.1536
 130        2.1563
 131        2.1593
 132        2.1593
 133        2.2062
 134        2.3431
 135        2.3637
 136        2.4004
 137        2.4004
 138        2.4056
 139        2.4750
 140        2.4755
 141        2.4811
 142        2.5054
 143        2.5056
 144        2.5078
 145        2.5078
 146        2.5170
 147        2.5170
 148        2.5401
 149        2.5401
 150        2.5464
 151        2.5754
 152        2.6133
 153        2.6133
 154        2.6339
 155        2.6394
 156        2.6411
 157        2.6431
 158        2.6431
 159        2.6481
 160        2.7143
 161        2.7143
 162        2.7514
 163        2.8503
 164        2.8508
 165        2.8524
 166        2.8525
 167        2.9827
 168        2.9827
 169        2.9878
 170        3.0418
 171        3.3392
 172        3.4396
 173        3.4396
 174        3.5543
 175        3.5543
 176        3.8363
 177        4.5612
 178        4.5612
 179        4.6945
 180        4.6945
 181        5.7894
 182        6.5274
 183        6.5274
 184        6.8240
 185        6.8610
 186        7.3368
 187        7.3943
 188        7.5717
 189        7.6590
 190        7.6590
 191        8.1811
 192        8.5042
 193        9.4457
 194        9.4457
 195       10.3733
 196       10.3733
 197       10.7456
 198       10.8440
 199       10.8440
 200       10.9824
 201       10.9824
 202       11.3340
 203       11.4919
 204       11.4919
 205       11.9510
 206       11.9510
 207       12.3184
 208       12.4414
 209       12.7946
 210       12.8846
 211       13.1027
 212       13.3391
 213       13.4129
 214       13.5459
 215       13.8514
 216       14.4652
 
  0.2857143E+00  0.2857143E+00  0.0000000E+00  0.3498542E-01
   1       -4.9556
   2       -3.6652
   3       -3.6652
   4       -2.5070
   5       -2.1884
   6       -2.1884
   7       -1.3598
   8       -1.3598
   9       -1.3598
  10       -1.3598
  11       -1.2283
  12       -1.2283
  13       -1.1789
  14       -1.1789
  15       -0.7705
  16       -0.7705
  17       -0.7648
  18       -0.7648
  19       -0.6589
  20       -0.4847
  21       -0.4847
  22       -0.2649
  23       -0.2649
  24       -0.2649
  25       -0.2649
  26       -0.2494
  27       -0.2494
  28       -0.2479
  29       -0.2311
  30       -0.2311