   4   4   0   0
  0.1275737E+02  0.3709144E-09  0.3709144E-09  0.3709144E-09  0.5000000E-15
  1.000000000000000E-004
  CAR 
 unknown system                          
     25.19561548     -7.08820211  301      3.14886170      1.00000000
     -7.088  0.0000E+00  0.0000E+00
     -6.981  0.0000E+00  0.0000E+00
     -6.873  0.0000E+00  0.0000E+00
     -6.765  0.0000E+00  0.0000E+00
     -6.658  0.0000E+00  0.0000E+00
     -6.550  0.0000E+00  0.0000E+00
     -6.443  0.0000E+00  0.0000E+00
     -6.335  0.0000E+00  0.0000E+00
     -6.227  0.0000E+00  0.0000E+00
     -6.120  0.0000E+00  0.0000E+00
     -6.012  0.0000E+00  0.0000E+00
     -5.904  0.0000E+00  0.0000E+00
     -5.797  0.0000E+00  0.0000E+00
     -5.689  0.0000E+00  0.0000E+00
     -5.582  0.8460E-02  0.9104E-03
     -5.474  0.1457E+00  0.1658E-01
     -5.366  0.6808E-01  0.2462E-01
     -5.259  0.2029E+00  0.5188E-01
     -5.151  0.2030E+00  0.7374E-01
     -5.044  0.1015E+00  0.8466E-01
     -4.936  0.4493E+00  0.1330E+00
     -4.828  0.2091E+00  0.1563E+00
     -4.721  0.2030E+00  0.1848E+00
     -4.613  0.4060E+00  0.2285E+00
     -4.505  0.7172E-01  0.2362E+00
     -4.398  0.3045E+00  0.3104E+00
     -4.290  0.3916E+00  0.3526E+00
     -4.183  0.4880E+00  0.4066E+00
     -4.075  0.3129E-03  0.4197E+00
     -3.967  0.2532E+00  0.4688E+00
     -3.860  0.8209E+00  0.5572E+00
     -3.752  0.2422E+00  0.5896E+00
     -3.645  0.4060E+00  0.6727E+00
     -3.537  0.1015E+00  0.6837E+00
     -3.429  0.6055E+00  0.7707E+00
     -3.322  0.6557E+00  0.8416E+00
     -3.214  0.7345E+00  0.9211E+00
     -3.107  0.5891E-01  0.9358E+00
     -2.999  0.7482E+00  0.1054E+01
     -2.891  0.1010E+00  0.1115E+01
     -2.784  0.7034E+00  0.1202E+01
     -2.676  0.6767E-01  0.1243E+01
     -2.568  0.1082E+01  0.1359E+01
     -2.461  0.5004E+00  0.1422E+01
     -2.353  0.1418E+01  0.1608E+01
     -2.246  0.7649E+00  0.1691E+01
     -2.138  0.9844E+00  0.1802E+01
     -2.030  0.7095E+00  0.1882E+01
     -1.923  0.9881E+00  0.2048E+01
     -1.815  0.1491E+01  0.2211E+01
     -1.708  0.8303E+00  0.2344E+01
     -1.600  0.4746E+00  0.2481E+01
     -1.492  0.2968E+01  0.2962E+01
     -1.385  0.1458E+01  0.3178E+01
     -1.277  0.3895E+01  0.3599E+01
     -1.170  0.4080E+01  0.4168E+01
     -1.062  0.3100E+01  0.4652E+01
     -0.954  0.4012E+01  0.5318E+01
     -0.847  0.6003E+01  0.6079E+01
     -0.739  0.5387E+01  0.6813E+01
     -0.631  0.7463E+01  0.7970E+01
     -0.524  0.8717E+01  0.9116E+01
     -0.416  0.6979E+01  0.1015E+02
     -0.309  0.6767E+01  0.1113E+02
     -0.201  0.7682E+01  0.1219E+02
     -0.093  0.6659E+01  0.1316E+02
      0.014  0.9272E+01  0.1443E+02
      0.122  0.1040E+02  0.1595E+02
      0.229  0.1090E+02  0.1750E+02
      0.337  0.1506E+02  0.1961E+02
      0.445  0.1302E+02  0.2139E+02
      0.552  0.1470E+02  0.2357E+02
      0.660  0.9977E+01  0.2510E+02
      0.768  0.8595E+01  0.2635E+02
      0.875  0.9945E+01  0.2767E+02
      0.983  0.1290E+02  0.2940E+02
      1.090  0.1348E+02  0.3129E+02
      1.198  0.1198E+02  0.3294E+02
      1.306  0.1110E+02  0.3450E+02
      1.413  0.1193E+02  0.3613E+02
      1.521  0.1807E+02  0.3847E+02
      1.628  0.1731E+02  0.4104E+02
      1.736  0.5289E+01  0.4190E+02
      1.844  0.8121E+00  0.4213E+02
      1.951  0.9148E+00  0.4223E+02
      2.059  0.2240E+01  0.4250E+02
      2.166  0.1117E+01  0.4264E+02
      2.274  0.6301E+00  0.4275E+02
      2.382  0.2444E+01  0.4302E+02
      2.489  0.7764E+00  0.4313E+02
      2.597  0.6091E+00  0.4322E+02
      2.705  0.1424E+01  0.4340E+02
      2.812  0.1167E+01  0.4357E+02
      2.920  0.8346E+00  0.4371E+02
      3.027  0.9806E+00  0.4385E+02
      3.135  0.8055E+00  0.4399E+02
      3.243  0.1651E+00  0.4405E+02
      3.350  0.1069E+01  0.4419E+02
      3.458  0.1025E+01  0.4432E+02
      3.565  0.2030E+01  0.4459E+02
      3.673  0.3953E+00  0.4464E+02
      3.781  0.6291E+00  0.4475E+02
      3.888  0.4256E+00  0.4484E+02
      3.996  0.4237E+00  0.4490E+02
      4.104  0.1257E+01  0.4510E+02
      4.211  0.4060E+00  0.4525E+02
      4.319  0.1123E+01  0.4537E+02
      4.426  0.6386E+00  0.4548E+02
      4.534  0.2274E+00  0.4559E+02
      4.642  0.3632E+00  0.4569E+02
      4.749  0.6344E+00  0.4576E+02
      4.857  0.9528E+00  0.4586E+02
      4.964  0.1015E+01  0.4600E+02
      5.072  0.1792E+01  0.4619E+02
      5.180  0.4033E+00  0.4632E+02
      5.287  0.2030E+00  0.4634E+02
      5.395  0.1189E+01  0.4647E+02
      5.502  0.1215E+01  0.4661E+02
      5.610  0.4060E+00  0.4666E+02
      5.718  0.1029E+00  0.4667E+02
      5.825  0.6098E+00  0.4677E+02
      5.933  0.1116E+01  0.4693E+02
      6.041  0.7039E+00  0.4701E+02
      6.148  0.8228E+00  0.4709E+02
      6.256  0.4100E+00  0.4720E+02
      6.363  0.1077E-01  0.4725E+02
      6.471  0.1695E+00  0.4729E+02
      6.579  0.6147E+00  0.4736E+02
      6.686  0.7856E+00  0.4751E+02
      6.794  0.4539E+00  0.4758E+02
      6.901  0.9926E+00  0.4769E+02
      7.009  0.1566E+01  0.4787E+02
      7.117  0.1106E+01  0.4802E+02
      7.224  0.6089E+00  0.4816E+02
      7.332  0.8121E+00  0.4825E+02
      7.440  0.1825E+01  0.4844E+02
      7.547  0.4589E+00  0.4849E+02
      7.655  0.1117E+01  0.4863E+02
      7.762  0.7459E+00  0.4873E+02
      7.870  0.9713E+00  0.4887E+02
      7.978  0.1218E+01  0.4909E+02
      8.085  0.6101E+00  0.4915E+02
      8.193  0.1464E+00  0.4921E+02
      8.300  0.1017E+01  0.4935E+02
      8.408  0.1104E+01  0.4949E+02
      8.516  0.1624E+01  0.4967E+02
      8.623  0.9136E+00  0.4977E+02
      8.731  0.1216E+01  0.4990E+02
      8.838  0.7946E+00  0.4998E+02
      8.946  0.4476E-01  0.5005E+02
      9.054  0.2114E+00  0.5014E+02
      9.161  0.6156E+00  0.5029E+02
      9.269  0.2669E+00  0.5034E+02
      9.377  0.1168E+01  0.5050E+02
      9.484  0.8121E+00  0.5061E+02
      9.592  0.9993E+00  0.5072E+02
      9.699  0.7867E+00  0.5082E+02
      9.807  0.9951E+00  0.5097E+02
      9.915  0.4059E+00  0.5102E+02
     10.022  0.2126E+01  0.5125E+02
     10.130  0.6091E+00  0.5137E+02
     10.237  0.4961E+00  0.5142E+02
     10.345  0.2570E+00  0.5148E+02
     10.453  0.1421E+01  0.5164E+02
     10.560  0.1614E+01  0.5183E+02
     10.668  0.1429E+01  0.5202E+02
     10.776  0.1230E+01  0.5220E+02
     10.883  0.1363E+01  0.5238E+02
     10.991  0.1523E+01  0.5256E+02
     11.098  0.1238E+01  0.5271E+02
     11.206  0.6231E+00  0.5280E+02
     11.314  0.2048E+00  0.5291E+02
     11.421  0.1599E+01  0.5310E+02
     11.529  0.6624E+00  0.5322E+02
     11.636  0.5121E+00  0.5338E+02
     11.744  0.8783E+00  0.5348E+02
     11.852  0.1143E+01  0.5369E+02
     11.959  0.1239E+01  0.5386E+02
     12.067  0.4033E+00  0.5408E+02
     12.174  0.7576E+00  0.5421E+02
     12.282  0.6102E+00  0.5440E+02
     12.390  0.1590E+01  0.5461E+02
     12.497  0.6732E+00  0.5470E+02
     12.605  0.1582E+01  0.5492E+02
     12.713  0.9017E+00  0.5507E+02
     12.820  0.1012E+01  0.5523E+02
     12.928  0.3045E+00  0.5530E+02
     13.035  0.1463E+01  0.5546E+02
     13.143  0.1733E+01  0.5569E+02
     13.251  0.6707E+00  0.5584E+02
     13.358  0.1119E+01  0.5598E+02
     13.466  0.7844E+00  0.5613E+02
     13.573  0.1433E+01  0.5635E+02
     13.681  0.7699E+00  0.5648E+02
     13.789  0.2013E+01  0.5670E+02
     13.896  0.1015E+01  0.5689E+02
     14.004  0.1169E+01  0.5702E+02
     14.112  0.1231E+01  0.5720E+02
     14.219  0.1244E+01  0.5735E+02
     14.327  0.1590E+01  0.5755E+02
     14.434  0.1426E+01  0.5780E+02
     14.542  0.8156E+00  0.5797E+02
     14.650  0.6319E+00  0.5810E+02
     14.757  0.1012E+01  0.5822E+02
     14.865  0.7702E+00  0.5837E+02
     14.972  0.1338E+01  0.5856E+02
     15.080  0.1827E+01  0.5888E+02
     15.188  0.4091E+00  0.5892E+02
     15.295  0.1729E+01  0.5917E+02
     15.403  0.1247E+01  0.5933E+02
     15.510  0.8522E+00  0.5946E+02
     15.618  0.1256E+01  0.5966E+02
     15.726  0.1654E+01  0.5986E+02
     15.833  0.2265E+01  0.6015E+02
     15.941  0.8458E+00  0.6026E+02
     16.049  0.1647E+01  0.6046E+02
     16.156  0.7322E+00  0.6065E+02
     16.264  0.1524E+01  0.6083E+02
     16.371  0.1553E+01  0.6103E+02
     16.479  0.1859E+01  0.6124E+02
     16.587  0.4273E+00  0.6133E+02
     16.694  0.1624E+01  0.6155E+02
     16.802  0.4514E+00  0.6160E+02
     16.909  0.1830E+01  0.6181E+02
     17.017  0.3826E+00  0.6187E+02
     17.125  0.1421E+01  0.6202E+02
     17.232  0.4909E-01  0.6207E+02
     17.340  0.6634E+00  0.6216E+02
     17.447  0.1044E+01  0.6231E+02
     17.555  0.6910E+00  0.6243E+02
     17.663  0.9747E+00  0.6255E+02
     17.770  0.6091E+00  0.6264E+02
     17.878  0.1478E-03  0.6264E+02
     17.986  0.5210E+00  0.6274E+02
     18.093  0.2014E+00  0.6277E+02
     18.201  0.4737E+00  0.6283E+02
     18.308  0.8237E+00  0.6292E+02
     18.416  0.4060E+00  0.6301E+02
     18.524  0.6091E+00  0.6307E+02
     18.631  0.2951E+00  0.6310E+02
     18.739  0.0000E+00  0.6314E+02
     18.846  0.3382E-04  0.6314E+02
     18.954  0.4063E+00  0.6322E+02
     19.062  0.1194E-02  0.6324E+02
     19.169  0.6343E+00  0.6335E+02
     19.277  0.0000E+00  0.6337E+02
     19.385  0.2030E+00  0.6339E+02
     19.492  0.1345E+00  0.6340E+02
     19.600  0.4060E+00  0.6348E+02
     19.707  0.2653E-07  0.6348E+02
     19.815  0.5920E+00  0.6354E+02
     19.923  0.0000E+00  0.6355E+02
     20.030  0.4060E+00  0.6359E+02
     20.138  0.0000E+00  0.6359E+02
     20.245  0.2405E+00  0.6362E+02
     20.353  0.2041E+00  0.6366E+02
     20.461  0.1617E+00  0.6370E+02
     20.568  0.0000E+00  0.6372E+02
     20.676  0.0000E+00  0.6372E+02
     20.783  0.0000E+00  0.6372E+02
     20.891  0.3724E+00  0.6376E+02
     20.999  0.3019E-01  0.6377E+02
     21.106  0.0000E+00  0.6383E+02
     21.214  0.0000E+00  0.6383E+02
     21.322  0.0000E+00  0.6383E+02
     21.429  0.0000E+00  0.6383E+02
     21.537  0.2030E+00  0.6385E+02
     21.644  0.4060E+00  0.6390E+02
     21.752  0.1959E-10  0.6390E+02
     21.860  0.6767E-01  0.6391E+02
     21.967  0.0000E+00  0.6391E+02
     22.075  0.0000E+00  0.6391E+02
     22.182  0.4060E+00  0.6395E+02
     22.290  0.0000E+00  0.6395E+02
     22.398  0.0000E+00  0.6395E+02
     22.505  0.0000E+00  0.6395E+02
     22.613  0.0000E+00  0.6395E+02
     22.721  0.0000E+00  0.6395E+02
     22.828  0.3020E-06  0.6395E+02
     22.936  0.2030E+00  0.6397E+02
     23.043  0.0000E+00  0.6397E+02
     23.151  0.0000E+00  0.6397E+02
     23.259  0.0000E+00  0.6397E+02
     23.366  0.2030E+00  0.6399E+02
     23.474  0.0000E+00  0.6399E+02
     23.581  0.0000E+00  0.6399E+02
     23.689  0.1059E-08  0.6399E+02
     23.797  0.6767E-01  0.6400E+02
     23.904  0.0000E+00  0.6400E+02
     24.012  0.0000E+00  0.6400E+02
     24.119  0.0000E+00  0.6400E+02
     24.227  0.0000E+00  0.6400E+02
     24.335  0.0000E+00  0.6400E+02
     24.442  0.0000E+00  0.6400E+02
     24.550  0.0000E+00  0.6400E+02
     24.658  0.0000E+00  0.6400E+02
     24.765  0.0000E+00  0.6400E+02
     24.873  0.0000E+00  0.6400E+02
     24.980  0.0000E+00  0.6400E+02
     25.088  0.0000E+00  0.6400E+02
     25.196  0.0000E+00  0.6400E+02
