    4    4    1    1
  0.1275737E+02  0.3709144E-09  0.3709144E-09  0.3709144E-09  0.5000000E-15
  1.000000000000000E-004
  CAR 
 unknown system                          
   44   84   32
 
  0.0000000E+00  0.0000000E+00  0.0000000E+00  0.4551661E-03
   1       -5.6208
   2       -1.3041
   3       -1.3041
   4       -1.3041
   5       -0.8990
   6       -0.8990
   7       -0.8990
   8        0.3343
   9        0.3343
  10        0.3343
  11        1.0688
  12        1.0688
  13        1.5573
  14        1.5573
  15        1.5573
  16        1.6941
  17        1.6941
  18        1.6941
  19        1.6941
  20        1.6941
  21        1.6941
  22        4.7233
  23        4.7233
  24        4.7233
  25        9.7506
  26        9.7506
  27        9.7506
  28       15.7249
  29       15.7249
  30       15.7249
  31       15.7249
  32       15.7249
 
  0.7692308E-01  0.0000000E+00  0.0000000E+00  0.2730997E-02
   1       -5.5526
   2       -1.3057
   3       -1.2734
   4       -1.2734
   5       -0.8819
   6       -0.8810
   7       -0.8810
   8        0.3156
   9        0.3496
  10        0.3496
  11        1.0518
  12        1.0757
  13        1.5353
  14        1.5353
  15        1.5500
  16        1.5861
  17        1.5861
  18        1.6681
  19        1.6681
  20        1.6942
  21        1.6942
  22        4.2695
  23        4.8932
  24        4.8932
  25        9.7781
  26        9.7781
  27       10.3435
  28       15.2467
  29       15.2467
  30       15.4066
  31       15.4066
  32       15.8232
 
  0.1538462E+00  0.0000000E+00  0.0000000E+00  0.2730997E-02
   1       -5.3493
   2       -1.3218
   3       -1.1851
   4       -1.1851
   5       -0.8314
   6       -0.8264
   7       -0.8264
   8        0.2606
   9        0.3950
  10        0.3950
  11        1.0025
  12        1.0962
  13        1.3183
  14        1.3183
  15        1.4712
  16        1.4712
  17        1.5288
  18        1.5930
  19        1.5930
  20        1.6943
  21        1.6943
  22        3.3003
  23        5.3463
  24        5.3463
  25        9.8628
  26        9.8628
  27       11.7392
  28       14.2150
  29       14.2150
  30       14.6549
  31       14.6549
  32       16.1148
 
  0.2307692E+00  0.0000000E+00  0.0000000E+00  0.2730997E-02
   1       -5.0146
   2       -1.3924
   3       -1.0508
   4       -1.0508
   5       -0.7501
   6       -0.7346
   7       -0.7346
   8        0.1730
   9        0.4696
  10        0.4696
  11        0.9261
  12        0.9832
  13        0.9832
  14        1.1291
  15        1.3708
  16        1.3708
  17        1.4772
  18        1.4772
  19        1.4948
  20        1.6944
  21        1.6944
  22        2.2749
  23        5.9892
  24        5.9892
  25       10.0110
  26       10.0110
  27       13.0370
  28       13.0370
  29       13.5123
  30       13.7670
  31       13.7670
  32       16.5900
 
  0.3076923E+00  0.0000000E+00  0.0000000E+00  0.2730997E-02
   1       -4.5557
   2       -1.5978
   3       -0.8915
   4       -0.8915
   5       -0.6422
   6       -0.6044
   7       -0.6044
   8        0.0583
   9        0.5715
  10        0.5715
  11        0.6399
  12        0.6399
  13        0.8326
  14        1.1727
  15        1.2475
  16        1.2475
  17        1.3322
  18        1.3322
  19        1.4316
  20        1.4501
  21        1.6946
  22        1.6946
  23        6.7613
  24        6.7613
  25       10.2326
  26       10.2326
  27       11.8512
  28       11.8512
  29       12.9048
  30       12.9048
  31       15.4933
  32       17.2351
 
  0.3846154E+00  0.0000000E+00  0.0000000E+00  0.2730997E-02
   1       -3.9861
   2       -2.0242
   3       -0.7410
   4       -0.7410
   5       -0.5134
   6       -0.4346
   7       -0.4346
   8       -0.0761
   9        0.3168
  10        0.3168
  11        0.6979
  12        0.6979
  13        0.7391
  14        0.9096
  15        1.1268
  16        1.1268
  17        1.1707
  18        1.1707
  19        1.2243
  20        1.3975
  21        1.6947
  22        1.6947
  23        7.6319
  24        7.6319
  25       10.5400
  26       10.5400
  27       10.7034
  28       10.7034
  29       12.1382
  30       12.1382
  31       17.6095
  32       18.0346
 
  0.4615385E+00  0.0000000E+00  0.0000000E+00  0.2730997E-02
   1       -3.3317
   2       -2.6443
   3       -0.6454
   4       -0.6454
   5       -0.3706
   6       -0.2242
   7       -0.2242
   8       -0.2220
   9        0.0269
  10        0.0269
  11        0.6758
  12        0.6987
  13        0.8443
  14        0.8443
  15        1.0046
  16        1.0046
  17        1.0480
  18        1.0480
  19        1.2813
  20        1.3401
  21        1.6948
  22        1.6948
  23        8.5852
  24        8.5852
  25        9.6115
  26        9.6115
  27       10.9408
  28       10.9408
  29       11.4993
  30       11.4993
  31       18.9727
  32       18.9727
 
  0.7692308E-01  0.7692308E-01  0.0000000E+00  0.5461994E-02
   1       -5.4847
   2       -1.2744
   3       -1.2744
   4       -1.2434
   5       -0.8641
   6       -0.8641
   7       -0.8634
   8        0.3052
   9        0.3568
  10        0.3635
  11        1.0471
  12        1.0717
  13        1.5046
  14        1.5098
  15        1.5098
  16        1.5142
  17        1.5737
  18        1.5737
  19        1.6681
  20        1.6681
  21        1.6774
  22        4.4358
  23        4.4358
  24        5.0535
  25        9.8060
  26       10.3792
  27       10.3792
  28       14.2575
  29       15.3394
  30       15.3394
  31       15.5003
  32       15.5003
 
  0.1538462E+00  0.7692308E-01  0.0000000E+00  0.1092399E-01
   1       -5.2821
   2       -1.2885
   3       -1.1841
   4       -1.1571
   5       -0.8145
   6       -0.8105
   7       -0.8104
   8        0.2555
   9        0.3979
  10        0.4048
  11        1.0041
  12        1.0900
  13        1.2653
  14        1.2665
  15        1.4253
  16        1.4523
  17        1.4792
  18        1.5441
  19        1.5929
  20        1.6680
  21        1.6684
  22        3.4744
  23        4.8697
  24        5.4874
  25        9.8917
  26       10.4891
  27       11.7848
  28       13.0634
  29       14.3015
  30       14.7399
  31       15.6137
  32       15.7035
 
  0.2307692E+00  0.7692308E-01  0.0000000E+00  0.1092399E-01
   1       -4.9486
   2       -1.3554
   3       -1.0465
   4       -1.0255
   5       -0.7345
   6       -0.7216
   7       -0.7202
   8        0.1707
   9        0.4711
  10        0.4712
  11        0.9327
  12        0.9327
  13        0.9505
  14        1.1261
  15        1.2723
  16        1.3552
  17        1.3774
  18        1.4769
  19        1.4999
  20        1.6663
  21        1.6679
  22        2.4906
  23        5.4698
  24        6.1126
  25       10.0403
  26       10.6803
  27       11.8813
  28       13.1208
  29       13.5629
  30       13.8436
  31       14.9729
  32       16.0586
 
  0.3076923E+00  0.7692308E-01  0.0000000E+00  0.1092399E-01
   1       -4.4916
   2       -1.5557
   3       -0.8827
   4       -0.8683
   5       -0.6285
   6       -0.5975
   7       -0.5922
   8        0.0587
   9        0.5547
  10        0.5724
  11        0.5934
  12        0.6216
  13        0.8528
  14        1.0286
  15        1.1745
  16        1.2359
  17        1.2541
  18        1.3318
  19        1.4306
  20        1.6659
  21        1.6677
  22        1.7671
  23        6.1754
  24        6.8714
  25       10.2481
  26       10.7750
  27       10.9643
  28       11.9349
  29       12.9738
  30       14.1002
  31       15.5446
  32       16.6581
 
  0.3846154E+00  0.7692308E-01  0.0000000E+00  0.1092399E-01
   1       -3.9246
   2       -1.9765
   3       -0.7263
   4       -0.7172
   5       -0.5019
   6       -0.4391
   7       -0.4254
   8       -0.0729
   9        0.2769
  10        0.3088
  11        0.6156
  12        0.6982
  13        0.7508
  14        0.8186
  15        1.1195
  16        1.1324
  17        1.1702
  18        1.2327
  19        1.2717
  20        1.4649
  21        1.6661
  22        1.6673
  23        6.9579
  24        7.7324
  25        9.6839
  26       10.6022
  27       10.7887
  28       11.3533
  29       12.2003
  30       13.2542
  31       17.3931
  32       17.5143
 
  0.4615385E+00  0.7692308E-01  0.0000000E+00  0.1092399E-01
   1       -3.2737
   2       -2.5911
   3       -0.6245
   4       -0.6208
   5       -0.3618
   6       -0.2432
   7       -0.2191
   8       -0.2160
   9       -0.0041
  10        0.0264
  11        0.6004
  12        0.6107
  13        0.8443
  14        0.9092
  15        1.0043
  16        1.0456
  17        1.0504
  18        1.0705
  19        1.2979
  20        1.3697
  21        1.6665
  22        1.6670
  23        7.8052
  24        8.6786
  25        8.7143
  26        9.7001
  27       11.0099
  28       11.5342
  29       11.8737
  30       12.5017
  31       18.2430
  32       18.4640
 
  0.1538462E+00  0.1538462E+00  0.0000000E+00  0.5461994E-02
   1       -5.0817
   2       -1.1920
   3       -1.1920
   4       -1.0765
   5       -0.7634
   6       -0.7634
   7       -0.7621
   8        0.2251
   9        0.4225
  10        0.4336
  11        0.9883
  12        1.0936
  13        1.0997
  14        1.1360
  15        1.1360
  16        1.3967
  17        1.4772
  18        1.4772
  19        1.5924
  20        1.5924
  21        1.6277
  22        3.8975
  23        3.8975
  24        5.8801
  25        9.9786
  26       11.7540
  27       11.9236
  28       11.9236
  29       14.5571
  30       14.5571
  31       14.9921
  32       14.9921
 
  0.2307692E+00  0.1538462E+00  0.0000000E+00  0.1092399E-01
   1       -4.7519
   2       -1.2482
   3       -1.0443
   4       -0.9534
   5       -0.6877
   6       -0.6820
   7       -0.6776
   8        0.1561
   9        0.4775
  10        0.4844
  11        0.7991
  12        0.8487
  13        0.9363
  14        0.9438
  15        1.1329
  16        1.3089
  17        1.3801
  18        1.4458
  19        1.4759
  20        1.5916
  21        1.6041
  22        2.9237
  23        4.4494
  24        6.4641
  25       10.0970
  26       10.5567
  27       12.1607
  28       13.3686
  29       13.7160
  30       14.0715
  31       14.9713
  32       15.4041
 
  0.3076923E+00  0.1538462E+00  0.0000000E+00  0.1092399E-01
   1       -4.3007
   2       -1.4337
   3       -0.8662
   4       -0.8037
   5       -0.5873
   6       -0.5746
   7       -0.5562
   8        0.0559
   9        0.4708
  10        0.5223
  11        0.5648
  12        0.5796
  13        0.7122
  14        0.8800
  15        1.1967
  16        1.2005
  17        1.2600
  18        1.3306
  19        1.3771
  20        1.5906
  21        1.5937
  22        2.1769
  23        5.0811
  24        7.1896
  25        9.3409
  26       10.4112
  27       12.1823
  28       12.5028
  29       13.1802
  30       15.5290
  31       15.6801
  32       15.7589
 
  0.3846154E+00  0.1538462E+00  0.0000000E+00  0.1092399E-01
   1       -3.7419
   2       -1.8374
   3       -0.6914
   4       -0.6506
   5       -0.4678
   6       -0.4497
   7       -0.3985
   8       -0.0655
   9        0.1717
  10        0.2837
  11        0.5274
  12        0.5303
  13        0.7020
  14        0.8769
  15        1.0959
  16        1.1382
  17        1.1694
  18        1.2601
  19        1.2775
  20        1.5895
  21        1.5895
  22        1.7317
  23        5.7787
  24        8.0253
  25        8.3178
  26       10.7285
  27       11.0406
  28       12.3824
  29       12.9593
  30       14.9694
  31       16.2134
  32       16.6324
 
  0.4615385E+00  0.1538462E+00  0.0000000E+00  0.1092399E-01
   1       -3.1024
   2       -2.4347
   3       -0.5681
   4       -0.5496
   5       -0.3358
   6       -0.2977
   7       -0.2047
   8       -0.1990
   9       -0.0882
  10        0.0241
  11        0.4645
  12        0.4901
  13        0.8457
  14        0.9619
  15        1.0043
  16        1.0344
  17        1.0503
  18        1.1047
  19        1.3757
  20        1.5067
  21        1.5884
  22        1.5886
  23        6.5441
  24        7.3867
  25        8.9529
  26        9.9609
  27       11.1590
  28       11.7084
  29       13.5277
  30       14.2053
  31       17.0086
  32       17.4450
 
  0.2307692E+00  0.2307692E+00  0.0000000E+00  0.5461994E-02
   1       -4.4289
   2       -1.0829
   3       -1.0829
   4       -0.8449
   5       -0.6157
   6       -0.6092
   7       -0.6092
   8        0.1140
   9        0.4886
  10        0.5265
  11        0.6143
  12        0.6143
  13        0.6800
  14        0.9089
  15        1.1807
  16        1.2346
  17        1.3558
  18        1.3558
  19        1.4746
  20        1.4746
  21        1.5463
  22        3.4361
  23        3.4361
  24        7.0022
  25        9.2074
  26       10.3501
  27       13.7705
  28       13.7705
  29       13.9725
  30       13.9725
  31       14.4486
  32       14.4486
 
  0.3076923E+00  0.2307692E+00  0.0000000E+00  0.1092399E-01
   1       -3.9879
   2       -1.2446
   3       -0.8808
   4       -0.7128
   5       -0.5296
   6       -0.5188
   7       -0.4987
   8        0.0396
   9        0.3118
  10        0.4296
  11        0.4667
  12        0.4935
  13        0.6051
  14        0.8689
  15        1.1415
  16        1.2416
  17        1.2690
  18        1.2921
  19        1.3293
  20        1.4732
  21        1.5084
  22        2.6222
  23        4.0056
  24        7.6870
  25        8.0672
  26       10.5965
  27       12.5832
  28       13.5169
  29       14.3125
  30       14.3471
  31       14.9469
  32       15.9881
 
  0.3846154E+00  0.2307692E+00  0.0000000E+00  0.1092399E-01
   1       -3.4443
   2       -1.6202
   3       -0.6751
   4       -0.5645
   5       -0.4497
   6       -0.4118
   7       -0.3563
   8       -0.0599
   9        0.0439
  10        0.2384
  11        0.3260
  12        0.4649
  13        0.7163
  14        0.8687
  15        1.0520
  16        1.1228
  17        1.1693
  18        1.1862
  19        1.3860
  20        1.4724
  21        1.4876
  22        2.0719
  23        4.6359
  24        7.0430
  25        8.4899
  26       10.9461
  27       11.4482
  28       12.6905
  29       14.8255
  30       14.9800
  31       15.5839
  32       16.8072
 
  0.4615385E+00  0.2307692E+00  0.0000000E+00  0.1092399E-01
   1       -2.8260
   2       -2.1862
   3       -0.5118
   4       -0.4429
   5       -0.3793
   6       -0.2945
   7       -0.1879
   8       -0.1831
   9       -0.1743
  10        0.0174
  11        0.3310
  12        0.3968
  13        0.8529
  14        0.9372
  15        1.0047
  16        1.0068
  17        1.0314
  18        1.0553
  19        1.4732
  20        1.4774
  21        1.5345
  22        1.7409
  23        5.3407
  24        6.1377
  25        9.3921
  26       10.3813
  27       11.4055
  28       11.9851
  29       15.4123
  30       15.7595
  31       16.0900
  32       16.3387
 
  0.3076923E+00  0.3076923E+00  0.0000000E+00  0.5461994E-02
   1       -3.5632
   2       -1.0122
   3       -1.0122
   4       -0.6192
   5       -0.4574
   6       -0.4233
   7       -0.4233
   8        0.0001
   9        0.1841
  10        0.1841
  11        0.3309
  12        0.4657
  13        0.6610
  14        0.8313
  15        1.0641
  16        1.1842
  17        1.1842
  18        1.3290
  19        1.3290
  20        1.3901
  21        1.4357
  22        3.1116
  23        3.1116
  24        6.9179
  25        8.3329
  26       10.8780
  27       13.1242
  28       13.1242
  29       13.9846
  30       13.9846
  31       16.3620
  32       16.3620
 
  0.3846154E+00  0.3076923E+00  0.0000000E+00  0.1092399E-01
   1       -3.0437
   2       -1.3498
   3       -0.7739
   4       -0.5396
   5       -0.3744
   6       -0.3353
   7       -0.3022
   8       -0.0644
   9       -0.0220
  10        0.1587
  11        0.1705
  12        0.4149
  13        0.7515
  14        0.8188
  15        0.9877
  16        1.0705
  17        1.0864
  18        1.1722
  19        1.3311
  20        1.3852
  21        1.5480
  22        2.4595
  23        3.6617
  24        5.9079
  25        9.1021
  26       11.2614
  27       11.9971
  28       13.1188
  29       13.7909
  30       14.5755
  31       16.4363
  32       16.8483
 
  0.4615385E+00  0.3076923E+00  0.0000000E+00  0.1092399E-01
   1       -2.4602
   2       -1.8666
   3       -0.5836
   4       -0.5036
   5       -0.2973
   6       -0.2409
   7       -0.1850
   8       -0.1583
   9       -0.1477
  10        0.0026
  11        0.2249
  12        0.3262
  13        0.8677
  14        0.8726
  15        0.9495
  16        0.9685
  17        0.9805
  18        1.0162
  19        1.3385
  20        1.3548
  21        1.7497
  22        2.0305
  23        4.2953
  24        5.0373
  25        9.9770
  26       10.9450
  27       11.7571
  28       12.3747
  29       14.5711
  30       15.2859
  31       15.4551
  32       16.1129
 
  0.3846154E+00  0.3846154E+00  0.0000000E+00  0.5461994E-02
   1       -2.5613
   2       -1.0660
   3       -1.0660
   4       -0.5750
   5       -0.2556
   6       -0.2414
   7       -0.2414
   8       -0.0861
   9        0.0292
  10        0.0292
  11        0.0808
  12        0.3585
  13        0.7787
  14        0.8163
  15        0.9171
  16        0.9806
  17        0.9806
  18        1.1815
  19        1.1815
  20        1.3003
  21        1.7527
  22        2.9092
  23        2.9092
  24        4.9299
  25        9.8406
  26       11.6831
  27       12.6726
  28       12.6726
  29       13.6674
  30       13.6674
  31       15.3495
  32       16.0314
 
  0.4615385E+00  0.3846154E+00  0.0000000E+00  0.1092399E-01
   1       -2.0321
   2       -1.5103
   3       -0.8217
   4       -0.6591
   5       -0.1803
   6       -0.1523
   7       -0.1352
   8       -0.1261
   9       -0.0672
  10       -0.0244
  11        0.1446
  12        0.2667
  13        0.7964
  14        0.8756
  15        0.8757
  16        0.8988
  17        0.9133
  18        1.0381
  19        1.2021
  20        1.2399
  21        2.0149
  22        2.3781
  23        3.4495
  24        4.1141
  25       10.6891
  26       11.6360
  27       12.2203
  28       12.8807
  29       13.4623
  30       14.3358
  31       14.3568
  32       15.1241
 
  0.4615385E+00  0.4615385E+00  0.0000000E+00  0.5461994E-02
   1       -1.5830
   2       -1.1646
   3       -1.1646
   4       -0.8751
   5       -0.1194
   6       -0.1194
   7       -0.1158
   8       -0.0656
   9       -0.0230
  10        0.0722
  11        0.0722
  12        0.1890
  13        0.7698
  14        0.8131
  15        0.8131
  16        0.8155
  17        0.9816
  18        1.0795
  19        1.0795
  20        1.1463
  21        2.3533
  22        2.8127
  23        2.8127
  24        3.3781
  25       11.5141
  26       12.4411
  27       12.4411
  28       12.8017
  29       13.3504
  30       13.5062
  31       13.5062
  32       14.2539
 
  0.7692308E-01  0.7692308E-01  0.7692308E-01  0.3641329E-02
   1       -5.4170
   2       -1.2438
   3       -1.2438
   4       -1.2438
   5       -0.8468
   6       -0.8468
   7       -0.8468
   8        0.2954
   9        0.3699
  10        0.3699
  11        1.0557
  12        1.0557
  13        1.4694
  14        1.4694
  15        1.4694
  16        1.4963
  17        1.4963
  18        1.4963
  19        1.6635
  20        1.6635
  21        1.6635
  22        4.5906
  23        4.5906
  24        4.5906
  25       10.4155
  26       10.4155
  27       10.4155
  28       14.3446
  29       14.3446
  30       14.3446
  31       16.0138
  32       16.0138
 
  0.1538462E+00  0.7692308E-01  0.7692308E-01  0.1092399E-01
   1       -5.2152
   2       -1.2561
   3       -1.1558
   4       -1.1558
   5       -0.7979
   6       -0.7946
   7       -0.7946
   8        0.2502
   9        0.4055
  10        0.4091
  11        1.0100
  12        1.0809
  13        1.2198
  14        1.2198
  15        1.3629
  16        1.4404
  17        1.4404
  18        1.4413
  19        1.6264
  20        1.6557
  21        1.6557
  22        3.6286
  23        5.0022
  24        5.0022
  25       10.5267
  26       10.5267
  27       11.8308
  28       13.1464
  29       13.1464
  30       14.6023
  31       15.7937
  32       15.7937
 
  0.2307692E+00  0.7692308E-01  0.7692308E-01  0.1092399E-01
   1       -4.8830
   2       -1.3199
   3       -1.0214
   4       -1.0214
   5       -0.7191
   6       -0.7072
   7       -0.7072
   8        0.1688
   9        0.4705
  10        0.4738
  11        0.9032
  12        0.9032
  13        0.9426
  14        1.1212
  15        1.1787
  16        1.3493
  17        1.3503
  18        1.3503
  19        1.5749
  20        1.6496
  21        1.6496
  22        2.6537
  23        5.5823
  24        5.5823
  25       10.7191
  26       10.7191
  27       11.9620
  28       11.9620
  29       13.6137
  30       15.0208
  31       15.0539
  32       15.0539
 
  0.3076923E+00  0.7692308E-01  0.7692308E-01  0.1092399E-01
   1       -4.4279
   2       -1.5156
   3       -0.8604
   4       -0.8604
   5       -0.6146
   6       -0.5855
   7       -0.5855
   8        0.0598
   9        0.5476
  10        0.5625
  11        0.5784
  12        0.5784
  13        0.8760
  14        0.9170
  15        1.1742
  16        1.2275
  17        1.2353
  18        1.2353
  19        1.5146
  20        1.6460
  21        1.6460
  22        1.9123
  23        6.2723
  24        6.2723
  25       10.8095
  26       10.8095
  27       11.0358
  28       11.0358
  29       14.1739
  30       14.1739
  31       15.5328
  32       15.6524
 
  0.3846154E+00  0.7692308E-01  0.7692308E-01  0.1092399E-01
   1       -3.8638
   2       -1.9307
   3       -0.7035
   4       -0.7035
   5       -0.4900
   6       -0.4322
   7       -0.4322
   8       -0.0689
   9        0.2741
  10        0.2741
  11        0.5863
  12        0.6689
  13        0.6731
  14        0.8744
  15        1.0878
  16        1.1201
  17        1.1201
  18        1.2369
  19        1.4480
  20        1.4632
  21        1.6442
  22        1.6442
  23        7.0411
  24        7.0411
  25        9.7844
  26        9.7844
  27       11.4100
  28       11.4100
  29       13.3217
  30       13.3217
  31       16.2706
  32       17.7307
 
  0.4615385E+00  0.7692308E-01  0.7692308E-01  0.1092399E-01
   1       -3.2168
   2       -2.5393
   3       -0.5996
   4       -0.5996
   5       -0.3522
   6       -0.2520
   7       -0.2520
   8       -0.2091
   9        0.0109
  10        0.0109
  11        0.5576
  12        0.5598
  13        0.8016
  14        0.9425
  15        0.9905
  16        1.0438
  17        1.0438
  18        1.1853
  19        1.3059
  20        1.3774
  21        1.6434
  22        1.6434
  23        7.8620
  24        7.8620
  25        8.8301
  26        8.8301
  27       11.9227
  28       11.9227
  29       12.5636
  30       12.5636
  31       17.0775
  32       17.9843
 
  0.1538462E+00  0.1538462E+00  0.7692308E-01  0.1092399E-01
   1       -5.0156
   2       -1.1628
   3       -1.1628
   4       -1.0744
   5       -0.7479
   6       -0.7479
   7       -0.7468
   8        0.2213
   9        0.4284
  10        0.4350
  11        1.0026
  12        1.0589
  13        1.0803
  14        1.0937
  15        1.0937
  16        1.3652
  17        1.3922
  18        1.3922
  19        1.6228
  20        1.6228
  21        1.6315
  22        4.0196
  23        4.0196
  24        5.3668
  25       10.6403
  26       11.8354
  27       11.9707
  28       11.9707
  29       13.3920
  30       13.3920
  31       16.0612
  32       16.0612
 
  0.2307692E+00  0.1538462E+00  0.7692308E-01  0.2184797E-01
   1       -4.6875
   2       -1.2174
   3       -1.0201
   4       -0.9503
   5       -0.6726
   6       -0.6677
   7       -0.6644
   8        0.1558
   9        0.4765
  10        0.4826
  11        0.7754
  12        0.8089
  13        0.9003
  14        0.9551
  15        1.1233
  16        1.2812
  17        1.3002
  18        1.3209
  19        1.5754
  20        1.6060
  21        1.6085
  22        3.0339
  23        4.5475
  24        5.8996
  25       10.5624
  26       10.8801
  27       12.1734
  28       12.2357
  29       13.7470
  30       13.8117
  31       15.2942
  32       16.4880
 
  0.3076923E+00  0.1538462E+00  0.7692308E-01  0.2184797E-01
   1       -4.2386
   2       -1.3997
   3       -0.8477
   4       -0.7992
   5       -0.5727
   6       -0.5625
   7       -0.5489
   8        0.0593
   9        0.4637
  10        0.5190
  11        0.5307
  12        0.5619
  13        0.6711
  14        0.9125
  15        1.1767
  16        1.1820
  17        1.1903
  18        1.2204
  19        1.5103
  20        1.5919
  21        1.5921
  22        2.2561
  23        5.1622
  24        6.5470
  25        9.4555
  26       11.0714
  27       11.1561
  28       12.5567
  29       14.3265
  30       14.3931
  31       15.7627
  32       15.8340
 
  0.3846154E+00  0.1538462E+00  0.7692308E-01  0.2184797E-01
   1       -3.6833
   2       -1.7978
   3       -0.6742
   4       -0.6416
   5       -0.4540
   6       -0.4471
   7       -0.4101
   8       -0.0587
   9        0.1840
  10        0.2633
  11        0.4971
  12        0.5209
  13        0.6593
  14        0.9395
  15        1.0392
  16        1.0827
  17        1.1115
  18        1.2717
  19        1.4134
  20        1.5828
  21        1.5834
  22        1.7523
  23        5.8460
  24        7.2560
  25        8.4613
  26       10.0271
  27       11.5636
  28       13.0140
  29       13.5237
  30       14.9906
  31       15.0377
  32       17.6291
 
  0.4615385E+00  0.1538462E+00  0.7692308E-01  0.2184797E-01
   1       -3.0488
   2       -2.3877
   3       -0.5447
   4       -0.5277
   5       -0.3318
   6       -0.3235
   7       -0.2838
   8       -0.1891
   9       -0.0204
  10        0.0385
  11        0.4439
  12        0.4753
  13        0.7731
  14        0.9016
  15        1.0207
  16        1.0318
  17        1.0642
  18        1.2497
  19        1.3666
  20        1.4937
  21        1.5790
  22        1.5793
  23        6.5943
  24        7.3706
  25        8.2378
  26        9.0690
  27       12.0929
  28       12.7482
  29       13.5870
  30       14.2687
  31       15.7681
  32       16.6498
 
  0.2307692E+00  0.2307692E+00  0.7692308E-01  0.1092399E-01
   1       -4.3665
   2       -1.0605
   3       -1.0605
   4       -0.8443
   5       -0.6010
   6       -0.5947
   7       -0.5947
   8        0.1172
   9        0.4868
  10        0.5155
  11        0.5966
  12        0.5966
  13        0.6485
  14        0.9375
  15        1.1695
  16        1.1951
  17        1.2477
  18        1.2477
  19        1.5458
  20        1.5458
  21        1.5640
  22        3.5177
  23        3.5177
  24        6.3748
  25        9.3271
  26       11.0748
  27       12.5853
  28       12.5853
  29       14.0294
  30       14.0294
  31       15.6877
  32       15.6877
 
  0.3076923E+00  0.2307692E+00  0.7692308E-01  0.2184797E-01
   1       -3.9287
   2       -1.2226
   3       -0.8709
   4       -0.7175
   5       -0.5147
   6       -0.5020
   7       -0.4870
   8        0.0474
   9        0.3153
  10        0.4187
  11        0.4466
  12        0.4912
  13        0.5761
  14        0.9141
  15        1.1049
  16        1.1349
  17        1.1690
  18        1.2581
  19        1.4679
  20        1.5154
  21        1.5267
  22        2.6766
  23        4.0700
  24        6.9372
  25        8.2295
  26       11.3921
  27       11.4535
  28       13.1088
  29       14.3968
  30       14.7567
  31       16.0075
  32       16.2486
 
  0.3846154E+00  0.2307692E+00  0.7692308E-01  0.2184797E-01
   1       -3.3898
   2       -1.5925
   3       -0.6780
   4       -0.5779
   5       -0.4383
   6       -0.3932
   7       -0.3637
   8       -0.0476
   9        0.0786
  10        0.2393
  11        0.3205
  12        0.4618
  13        0.6561
  14        0.9467
  15        1.0027
  16        1.0213
  17        1.0740
  18        1.3592
  19        1.3739
  20        1.4954
  21        1.5014
  22        2.0896
  23        4.6884
  24        6.9703
  25        7.8841
  26       10.4082
  27       11.8235
  28       13.7566
  29       13.8565
  30       14.8826
  31       16.3590
  32       16.8744
 
  0.4615385E+00  0.2307692E+00  0.7692308E-01  0.2184797E-01
   1       -2.7785
   2       -2.1483
   3       -0.5163
   4       -0.4386
   5       -0.4163
   6       -0.3089
   7       -0.2761
   8       -0.1583
   9       -0.0387
  10        0.0596
  11        0.3273
  12        0.3933
  13        0.7538
  14        0.8712
  15        0.9749
  16        0.9959
  17        1.0582
  18        1.2132
  19        1.4868
  20        1.4885
  21        1.5206
  22        1.7326
  23        5.3818
  24        6.1591
  25        8.5895
  26        9.4522
  27       12.3774
  28       13.0574
  29       14.5186
  30       15.3876
  31       15.4717
  32       16.1529
 
  0.3076923E+00  0.3076923E+00  0.7692308E-01  0.1092399E-01
   1       -3.5085
   2       -1.0102
   3       -1.0102
   4       -0.6408
   5       -0.4366
   6       -0.4029
   7       -0.4029
   8        0.0140
   9        0.1958
  10        0.1958
  11        0.3299
  12        0.4648
  13        0.6084
  14        0.8981
  15        1.0198
  16        1.0753
  17        1.0753
  18        1.3774
  19        1.4216
  20        1.4216
  21        1.4651
  22        3.1532
  23        3.1532
  24        6.8244
  25        7.7656
  26       11.7360
  27       11.9688
  28       11.9688
  29       15.2437
  30       15.2437
  31       16.2578
  32       16.4188
 
  0.3846154E+00  0.3076923E+00  0.7692308E-01  0.2184797E-01
   1       -2.9961
   2       -1.3420
   3       -0.8006
   4       -0.5834
   5       -0.3494
   6       -0.3072
   7       -0.2849
   8       -0.0437
   9        0.0210
  10        0.1695
  11        0.1972