       N       E                     dE             d eps       ncg     rms          rms(c)
DAV:   1     0.279839280384E+03    0.27984E+03   -0.20323E+04  5528   0.203E+03
DAV:   2     0.455985370952E+00   -0.27938E+03   -0.26521E+03  5408   0.352E+02
DAV:   3    -0.179655498252E+02   -0.18422E+02   -0.18038E+02  6032   0.114E+02
DAV:   4    -0.181689491086E+02   -0.20340E+00   -0.20328E+00  5800   0.135E+01
DAV:   5    -0.181693176935E+02   -0.36858E-03   -0.36858E-03  6208   0.525E-01    0.138E+01
DAV:   6    -0.162981261090E+02    0.18712E+01   -0.25162E+01  5872   0.791E+01    0.695E+00
DAV:   7    -0.148487134839E+02    0.14494E+01   -0.49947E+00  6112   0.344E+01    0.994E-01
DAV:   8    -0.148214772687E+02    0.27236E-01   -0.50622E-02  5792   0.212E+00    0.737E-01
DAV:   9    -0.148108129750E+02    0.10664E-01   -0.21422E-02  6192   0.230E+00    0.313E-02
DAV:  10    -0.148108870677E+02   -0.74093E-04   -0.59127E-04  5840   0.213E-01    0.111E-02
DAV:  11    -0.148108842876E+02    0.27801E-05   -0.77106E-06  6288   0.342E-02    0.615E-03
DAV:  12    -0.148108892347E+02   -0.49470E-05   -0.76157E-07  6032   0.134E-02    0.890E-04
DAV:  13    -0.148108895535E+02   -0.31883E-06   -0.39051E-08  5656   0.233E-03    0.331E-04
DAV:  14    -0.148108895740E+02   -0.20468E-07   -0.17772E-09  3456   0.479E-04    0.225E-05
DAV:  15    -0.148108895535E+02    0.20506E-07   -0.57916E-10  3304   0.187E-04    0.167E-05
DAV:  16    -0.148108895420E+02    0.11424E-07   -0.61132E-11  3168   0.853E-05    0.121E-05
DAV:  17    -0.148108895401E+02    0.19227E-08   -0.69378E-12  3128   0.274E-05
   1 F= -.14810890E+02 E0= -.14810838E+02  d E =-.102360E-03
