 vasp.4.6.28 25Jul05 complex 
 executed on             LinuxIFC date 2016.07.06  18:27:02
 running on    8 nodes
 distr:  one band on    1 nodes,    8 groups


--------------------------------------------------------------------------------------------------------


 INCAR:
 POTCAR:   PAW_PBE Cu 05Jan2001                   
 POTCAR:   PAW_PBE Cu 05Jan2001                   
   VRHFIN =Cu: d10 p1                                                           
   LEXCH  = PE                                                                  
   EATOM  =  1390.9800 eV,  102.2341 Ry                                         
                                                                                
   TITEL  = PAW_PBE Cu 05Jan2001                                                
   LULTRA =        F    use ultrasoft PP ?                                      
   IUNSCR =        1    unscreen: 0-lin 1-nonlin 2-no                           
   RPACOR =    2.000    partial core radius                                     
   POMASS =   63.546; ZVAL   =   11.000    mass and valenz                      
   RCORE  =    2.300    outmost cutoff radius                                   
   RWIGS  =    2.480; RWIGS  =    1.312    wigner-seitz radius (au A)           
   ENMAX  =  273.214; ENMIN  =  204.910 eV                                      
   RCLOC  =    1.712    cutoff for local pot                                    
   LCOR   =        T    correct aug charges                                     
   LPAW   =        T    paw PP                                                  
   EAUG   =  516.456                                                            
   DEXC   =    -.008                                                            
   RMAX   =    2.789    core radius for proj-oper                               
   RAUG   =    1.300    factor for augmentation sphere                          
   RDEP   =    2.302    radius for radial grids                                 
   QCUT   =   -4.481; QGAM   =    8.962    optimization parameters              
                                                                                
   Description                                                                  
     l     E      TYP  RCUT    TYP  RCUT                                        
     2   .000     23  2.300                                                     
     2   .000     23  2.300                                                     
     0   .000     23  2.300                                                     
     0   .000     23  2.300                                                     
     1  -.200     23  2.300                                                     
     1   .000     23  2.300                                                     
     3   .000      7   .000                                                     
  local pseudopotential read in
  partial core-charges read in
  atomic valenz-charges read in
  non local Contribution for L=           2  read in
    real space projection operators read in
  non local Contribution for L=           2  read in
    real space projection operators read in
  non local Contribution for L=           0  read in
    real space projection operators read in
  non local Contribution for L=           0  read in
    real space projection operators read in
  non local Contribution for L=           1  read in
    real space projection operators read in
  non local Contribution for L=           1  read in
    real space projection operators read in
    PAW grid and wavefunctions read in
 
   number of l-projection  operators is LMAX  =           6
   number of lm-projection operators is LMMAX =          18
 
 PAW_PBE Cu 05Jan2001                   :
 energy of atom  1       EATOM=-1390.9800
 kinetic energy error for atom=    0.0032 (will be added to EATOM!!)
 
 EXHCAR: internal setup
 exchange correlation table for  LEXCH =        8
   RHO(1)=    0.500       N(1)  =     2000
   RHO(2)=  100.500       N(2)  =     4000
 
 POSCAR: Cu                                      
  positions in direct lattice
  velocities in cartesian coordinates
 


--------------------------------------------------------------------------------------------------------


 ion  position               nearest neighbor table
   1  0.000  0.000  0.000-   2 2.62   3 2.62   4 2.62   3 2.62   4 2.62   2 2.62   4 2.62   4 2.62
                             2 2.62   3 2.62   3 2.62   2 2.62
   2  0.500  0.500  0.000-   1 2.62   3 2.62   4 2.62   3 2.62   4 2.62   1 2.62   3 2.62   3 2.62
                             1 2.62   4 2.62   4 2.62   1 2.62
   3  0.500  0.000  0.500-   1 2.62   2 2.62   4 2.62   1 2.62   2 2.62   2 2.62   4 2.62   2 2.62
                             1 2.62   4 2.62   1 2.62   4 2.62
   4  0.000  0.500  0.500-   1 2.62   2 2.62   3 2.62   1 2.62   2 2.62   1 2.62   3 2.62   1 2.62
                             2 2.62   3 2.62   2 2.62   3 2.62
 
  LATTYP: Found a simple cubic cell.
 ALAT       =     3.7091441280
  
  Lattice vectors:
  
 A1 = (   3.7091441280,   0.0000000000,   0.0000000000)
 A2 = (   0.0000000000,   3.7091441280,   0.0000000000)
 A3 = (   0.0000000000,   0.0000000000,   3.7091441280)
 Subroutine PRICEL returns following result:
 
  LATTYP: Found a face centered cubic cell.
 ALAT       =     3.7091441280
  
  Lattice vectors:
  
 A1 = (   1.8545720640,   1.8545720640,   0.0000000000)
 A2 = (   1.8545720640,   0.0000000000,  -1.8545720640)
 A3 = (   0.0000000000,   1.8545720640,  -1.8545720640)
 
   4 primitive cells build up your supercell.
 

Analysis of symmetry for initial positions (statically):

 Routine SETGRP: Setting up the symmetry group for a 
 simple cubic supercell.


 Subroutine GETGRP returns: Found 48 space group operations
 (whereof 48 operations were pure point group operations)
 out of a pool of 48 trial point group operations.


The static configuration has the point symmetry O_h .

Analysis of symmetry for dynamics (positions and initial velocities):

 Subroutine DYNSYM returns: Found 48 space group operations
 (whereof 48 operations were pure point group operations)
 out of a pool of 48 trial space group operations
 (whereof 48 operations were pure point group operations)
 and found also     4 'primitive' translations


The dynamic configuration has the point symmetry O_h .
 
 
 KPOINTS: Automatic mesh                          

Automatic generation of k-mesh.
 generate k-points for:  13  13  13
 
 Subroutine IBZKPT returns following result:
 ===========================================
 
 Found     84 irreducible k-points:
 
 Following reciprocal coordinates:
            Coordinates               Weight
  0.000000  0.000000  0.000000      1.000000
  0.076923  0.000000  0.000000      6.000000
  0.153846  0.000000  0.000000      6.000000
  0.230769  0.000000  0.000000      6.000000
  0.307692  0.000000  0.000000      6.000000
  0.384615  0.000000  0.000000      6.000000
  0.461538  0.000000  0.000000      6.000000
  0.076923  0.076923  0.000000     12.000000
  0.153846  0.076923  0.000000     24.000000
  0.230769  0.076923  0.000000     24.000000
  0.307692  0.076923  0.000000     24.000000
  0.384615  0.076923  0.000000     24.000000
  0.461538  0.076923  0.000000     24.000000
  0.153846  0.153846  0.000000     12.000000
  0.230769  0.153846  0.000000     24.000000
  0.307692  0.153846  0.000000     24.000000
  0.384615  0.153846  0.000000     24.000000
  0.461538  0.153846  0.000000     24.000000
  0.230769  0.230769  0.000000     12.000000
  0.307692  0.230769  0.000000     24.000000
  0.384615  0.230769  0.000000     24.000000
  0.461538  0.230769  0.000000     24.000000
  0.307692  0.307692  0.000000     12.000000
  0.384615  0.307692  0.000000     24.000000
  0.461538  0.307692  0.000000     24.000000
  0.384615  0.384615  0.000000     12.000000
  0.461538  0.384615  0.000000     24.000000
  0.461538  0.461538  0.000000     12.000000
  0.076923  0.076923  0.076923      8.000000
  0.153846  0.076923  0.076923     24.000000
  0.230769  0.076923  0.076923     24.000000
  0.307692  0.076923  0.076923     24.000000
  0.384615  0.076923  0.076923     24.000000
  0.461538  0.076923  0.076923     24.000000
  0.153846  0.153846  0.076923     24.000000
  0.230769  0.153846  0.076923     48.000000
  0.307692  0.153846  0.076923     48.000000
  0.384615  0.153846  0.076923     48.000000
  0.461538  0.153846  0.076923     48.000000
  0.230769  0.230769  0.076923     24.000000
  0.307692  0.230769  0.076923     48.000000
  0.384615  0.230769  0.076923     48.000000
  0.461538  0.230769  0.076923     48.000000
  0.307692  0.307692  0.076923     24.000000
  0.384615  0.307692  0.076923     48.000000
  0.461538  0.307692  0.076923     48.000000
  0.384615  0.384615  0.076923     24.000000
  0.461538  0.384615  0.076923     48.000000
  0.461538  0.461538  0.076923     24.000000
  0.153846  0.153846  0.153846      8.000000
  0.230769  0.153846  0.153846     24.000000
  0.307692  0.153846  0.153846     24.000000
  0.384615  0.153846  0.153846     24.000000
  0.461538  0.153846  0.153846     24.000000
  0.230769  0.230769  0.153846     24.000000
  0.307692  0.230769  0.153846     48.000000
  0.384615  0.230769  0.153846     48.000000
  0.461538  0.230769  0.153846     48.000000
  0.307692  0.307692  0.153846     24.000000
  0.384615  0.307692  0.153846     48.000000
  0.461538  0.307692  0.153846     48.000000
  0.384615  0.384615  0.153846     24.000000
  0.461538  0.384615  0.153846     48.000000
  0.461538  0.461538  0.153846     24.000000
  0.230769  0.230769  0.230769      8.000000
  0.307692  0.230769  0.230769     24.000000
  0.384615  0.230769  0.230769     24.000000
  0.461538  0.230769  0.230769     24.000000
  0.307692  0.307692  0.230769     24.000000
  0.384615  0.307692  0.230769     48.000000
  0.461538  0.307692  0.230769     48.000000
  0.384615  0.384615  0.230769     24.000000
  0.461538  0.384615  0.230769     48.000000
  0.461538  0.461538  0.230769     24.000000
  0.307692  0.307692  0.307692      8.000000
  0.384615  0.307692  0.307692     24.000000
  0.461538  0.307692  0.307692     24.000000
  0.384615  0.384615  0.307692     24.000000
  0.461538  0.384615  0.307692     48.000000
  0.461538  0.461538  0.307692     24.000000
  0.384615  0.384615  0.384615      8.000000
  0.461538  0.384615  0.384615     24.000000
  0.461538  0.461538  0.384615     24.000000
  0.461538  0.461538  0.461538      8.000000
 
 Following cartesian coordinates:
            Coordinates               Weight
  0.000000  0.000000  0.000000      1.000000
  0.021154  0.000000  0.000000      6.000000
  0.042307  0.000000  0.000000      6.000000
  0.063461  0.000000  0.000000      6.000000
  0.084614  0.000000  0.000000      6.000000
  0.105768  0.000000  0.000000      6.000000
  0.126921  0.000000  0.000000      6.000000
  0.021154  0.021154  0.000000     12.000000
  0.042307  0.021154  0.000000     24.000000
  0.063461  0.021154  0.000000     24.000000
  0.084614  0.021154  0.000000     24.000000
  0.105768  0.021154  0.000000     24.000000
  0.126921  0.021154  0.000000     24.000000
  0.042307  0.042307  0.000000     12.000000
  0.063461  0.042307  0.000000     24.000000
  0.084614  0.042307  0.000000     24.000000
  0.105768  0.042307  0.000000     24.000000
  0.126921  0.042307  0.000000     24.000000
  0.063461  0.063461  0.000000     12.000000
  0.084614  0.063461  0.000000     24.000000
  0.105768  0.063461  0.000000     24.000000
  0.126921  0.063461  0.000000     24.000000
  0.084614  0.084614  0.000000     12.000000
  0.105768  0.084614  0.000000     24.000000
  0.126921  0.084614  0.000000     24.000000
  0.105768  0.105768  0.000000     12.000000
  0.126921  0.105768  0.000000     24.000000
  0.126921  0.126921  0.000000     12.000000
  0.021154  0.021154  0.021154      8.000000
  0.042307  0.021154  0.021154     24.000000
  0.063461  0.021154  0.021154     24.000000
  0.084614  0.021154  0.021154     24.000000
  0.105768  0.021154  0.021154     24.000000
  0.126921  0.021154  0.021154     24.000000
  0.042307  0.042307  0.021154     24.000000
  0.063461  0.042307  0.021154     48.000000
  0.084614  0.042307  0.021154     48.000000
  0.105768  0.042307  0.021154     48.000000
  0.126921  0.042307  0.021154     48.000000
  0.063461  0.063461  0.021154     24.000000
  0.084614  0.063461  0.021154     48.000000
  0.105768  0.063461  0.021154     48.000000
  0.126921  0.063461  0.021154     48.000000
  0.084614  0.084614  0.021154     24.000000
  0.105768  0.084614  0.021154     48.000000
  0.126921  0.084614  0.021154     48.000000
  0.105768  0.105768  0.021154     24.000000
  0.126921  0.105768  0.021154     48.000000
  0.126921  0.126921  0.021154     24.000000
  0.042307  0.042307  0.042307      8.000000
  0.063461  0.042307  0.042307     24.000000
  0.084614  0.042307  0.042307     24.000000
  0.105768  0.042307  0.042307     24.000000
  0.126921  0.042307  0.042307     24.000000
  0.063461  0.063461  0.042307     24.000000
  0.084614  0.063461  0.042307     48.000000
  0.105768  0.063461  0.042307     48.000000
  0.126921  0.063461  0.042307     48.000000
  0.084614  0.084614  0.042307     24.000000
  0.105768  0.084614  0.042307     48.000000
  0.126921  0.084614  0.042307     48.000000
  0.105768  0.105768  0.042307     24.000000
  0.126921  0.105768  0.042307     48.000000
  0.126921  0.126921  0.042307     24.000000
  0.063461  0.063461  0.063461      8.000000
  0.084614  0.063461  0.063461     24.000000
  0.105768  0.063461  0.063461     24.000000
  0.126921  0.063461  0.063461     24.000000
  0.084614  0.084614  0.063461     24.000000
  0.105768  0.084614  0.063461     48.000000
  0.126921  0.084614  0.063461     48.000000
  0.105768  0.105768  0.063461     24.000000
  0.126921  0.105768  0.063461     48.000000
  0.126921  0.126921  0.063461     24.000000
  0.084614  0.084614  0.084614      8.000000
  0.105768  0.084614  0.084614     24.000000
  0.126921  0.084614  0.084614     24.000000
  0.105768  0.105768  0.084614     24.000000
  0.126921  0.105768  0.084614     48.000000
  0.126921  0.126921  0.084614     24.000000
  0.105768  0.105768  0.105768      8.000000
  0.126921  0.105768  0.105768     24.000000
  0.126921  0.126921  0.105768     24.000000
  0.126921  0.126921  0.126921      8.000000
 


--------------------------------------------------------------------------------------------------------




 Dimension of arrays:
   k-Points           NKPTS =     84   number of bands    NBANDS=     32
   number of dos      NEDOS =    301   number of ions     NIONS =      4
   non local maximal  LDIM  =      6   non local SUM 2l+1 LMDIM =     18
   total plane-waves  NPLWV =  21952
   max r-space proj   IRMAX =      1   max aug-charges    IRDMAX= 120970
   dimension x,y,z NGX =    28 NGY =   28 NGZ =   28
   dimension x,y,z NGXF=    56 NGYF=   56 NGZF=   56
   support grid    NGXF=   112 NGYF=  112 NGZF=  112
   ions per type =               4
 NGX,Y,Z   is equivalent  to a cutoff of  12.55, 12.55, 12.55 a.u.
 NGXF,Y,Z  is equivalent  to a cutoff of  25.10, 25.10, 25.10 a.u.


 I would recommend the setting:
   dimension x,y,z NGX =    27 NGY =   27 NGZ =   27
 SYSTEM =  unknown system                          
 POSCAR =  Cu                                      

 Startparameter for this run:
   NWRITE =      2    write-flag & timer
   PREC   = accura    medium, high low
   ISTART =      0    job   : 0-new  1-cont  2-samecut
   ICHARG =      2    charge: 1-file 2-atom 10-const
   ISPIN  =      1    spin polarized calculation?
   LNONCOLLINEAR =      F non collinear calculations
   LSORBIT =      F    spin-orbit coupling
   INIWAV =      1    electr: 0-lowe 1-rand  2-diag
   LASPH  =      F    aspherical Exc in radial PAW
   METAGGA=      F    non-selfconsistent MetaGGA calc.

 Electronic Relaxation 1
   ENCUT  =  500.0 eV  36.75 Ry    6.06 a.u.   6.76  6.76  6.76*2*pi/ulx,y,z
   ENINI  =  500.0     initial cutoff
   ENAUG  =  516.5 eV  augmentation charge cutoff
   NELM   =     60;   NELMIN=  2; NELMDL=  0     # of ELM steps 
   EDIFF  = 0.1E-07   stopping-criterion for ELM
   LREAL  =      F    real-space projection
   LCOMPAT=      F    compatible to vasp.4.4
   LREAL_COMPAT= F    compatible to vasp.4.5.1-3
   GGA_COMPAT  = T    GGA compatible to vasp.4.4-vasp.4.6
   LMAXPAW     = -100 max onsite density
   LMAXMIX     =    2 max onsite mixed and CHGCAR
   VOSKOWN=      0    Vosko Wilk Nusair interpolation
   ROPT   =    0.00000
 Ionic relaxation
   EDIFFG = 0.1E-06   stopping-criterion for IOM
   NSW    =      0    number of steps for IOM
   NBLOCK =      1;   KBLOCK =      1    inner block; outer block 
   IBRION =     -1    ionic relax: 0-MD 1-quasi-New 2-CG
   NFREE  =      0    steps in history (QN), initial steepest desc. (CG)
   ISIF   =      2    stress and relaxation
   IWAVPR =     10    prediction:  0-non 1-charg 2-wave 3-comb
   ISYM   =      2    0-nonsym 1-usesym 2-fastsym
   LCORR  =      T    Harris-Foulkes like correction to forces

   POTIM  =   0.50    time-step for ionic-motion
   TEIN   =    0.0    initial temperature
   TEBEG  =    0.0;   TEEND  =   0.0 temperature during run
   SMASS  =  -3.00    Nose mass-parameter (am)
   estimated Nose-frequenzy (Omega)   =  0.10E-29 period in steps =****** mass=  -0.314E-27a.u.
   NPACO  =    256;   APACO  = 16.0  distance and # of slots for P.C.
   PSTRESS=    0.0 pullay stress

  Mass of Ions in am
   POMASS =  63.55
  Ionic Valenz
   ZVAL   =  11.00
  Atomic Wigner-Seitz radii
   RWIGS  =  -1.00
   NELECT =      44.0000    total number of electrons
   NUPDOWN=      -1.0000    fix difference up-down

 DOS related values:
   EMIN   =  10.00;   EMAX   =-10.00  energy-range for DOS
   ISMEAR =     0;   SIGMA  =   0.01  broadening in eV -4-tet -1-fermi 0-gaus

 Electronic relaxation 2 (details)
   IALGO  =     38    algorithm
   LDIAG  =      T    sub-space diagonalisation
   IMIX   =      4    mixing-type and parameters
     AMIX     =   0.40;   BMIX     =  1.00
     AMIX_MAG =   1.60;   BMIX_MAG =  1.00
     AMIN     =   0.10
     WC   =   100.;   INIMIX=   1;  MIXPRE=   1

 Intra band minimization:
   WEIMIN = 0.0000     energy-eigenvalue tresh-hold
   EBREAK =  0.96E-10  absolut break condition
   DEPER  =   0.30     relativ break condition  

   TIME   =   0.10     timestep for ELM

  volume/ion in A,a.u.               =      12.76        86.09
  Fermi-wavevector in a.u.,eV,Ry     =   1.558184 33.034084  2.427937

 Second variation
   LSECVAR=     F    do a second variation
 
 Write flags
   LWAVE  =      F    write WAVECAR
   LCHARG =      F    write CHGCAR
   LVTOT  =      F    write LOCPOT, local potential
   LELF   =      F    write electronic localiz. function (ELF)
   LORBIT =      0    0 simple, 1 ext, 2 COOP (PROOUT)


 Dipole corrections
   IDIPOL =      0    1-x, 2-y, 3-z
   LDIPOL =      F    correct potential



--------------------------------------------------------------------------------------------------------


 Static calculation
 charge density will be updated during run
 non-spin polarized calculation
 Variant of blocked Davidson
 Davidson routine will perform the subspace rotation
 performe sub-space diagonalisation
    after iterative eigenvector-optimisation
 modified Broyden-mixing scheme, WC =      100.0
 initial mixing is a Kerker type mixing with AMIX =  0.4000 and BMIX =      1.0000
 Hartree-type preconditioning will be used
 using additional bands           10
 reciprocal scheme for non local part
 use partial core corrections
 calculate Harris-corrections to forces 
   (improved forces if not selfconsistent)
 use gradient corrections 
 use of overlap-Matrix (Vanderbilt PP)
 Gauss-broadening in eV      SIGMA  =   0.01


--------------------------------------------------------------------------------------------------------


  energy-cutoff  :      500.00
  volume of cell :       51.03
      direct lattice vectors                 reciprocal lattice vectors
     3.709144128  0.000000000  0.000000000     0.269603975  0.000000000  0.000000000
     0.000000000  3.709144128  0.000000000     0.000000000  0.269603975  0.000000000
     0.000000000  0.000000000  3.709144128     0.000000000  0.000000000  0.269603975

  length of vectors
     3.709144128  3.709144128  3.709144128     0.269603975  0.269603975  0.269603975


 
 k-points in units of 2pi/SCALE and weight: Automatic mesh                          
   0.00000000  0.00000000  0.00000000       0.000
   0.02115354  0.00000000  0.00000000       0.003
   0.04230709  0.00000000  0.00000000       0.003
   0.06346063  0.00000000  0.00000000       0.003
   0.08461417  0.00000000  0.00000000       0.003
   0.10576771  0.00000000  0.00000000       0.003
   0.12692126  0.00000000  0.00000000       0.003
   0.02115354  0.02115354  0.00000000       0.005
   0.04230709  0.02115354  0.00000000       0.011
   0.06346063  0.02115354  0.00000000       0.011
   0.08461417  0.02115354  0.00000000       0.011
   0.10576771  0.02115354  0.00000000       0.011
   0.12692126  0.02115354  0.00000000       0.011
   0.04230709  0.04230709  0.00000000       0.005
   0.06346063  0.04230709  0.00000000       0.011
   0.08461417  0.04230709  0.00000000       0.011
   0.10576771  0.04230709  0.00000000       0.011
   0.12692126  0.04230709  0.00000000       0.011
   0.06346063  0.06346063  0.00000000       0.005
   0.08461417  0.06346063  0.00000000       0.011
   0.10576771  0.06346063  0.00000000       0.011
   0.12692126  0.06346063  0.00000000       0.011
   0.08461417  0.08461417  0.00000000       0.005
   0.10576771  0.08461417  0.00000000       0.011
   0.12692126  0.08461417  0.00000000       0.011
   0.10576771  0.10576771  0.00000000       0.005
   0.12692126  0.10576771  0.00000000       0.011
   0.12692126  0.12692126  0.00000000       0.005
   0.02115354  0.02115354  0.02115354       0.004
   0.04230709  0.02115354  0.02115354       0.011
   0.06346063  0.02115354  0.02115354       0.011
   0.08461417  0.02115354  0.02115354       0.011
   0.10576771  0.02115354  0.02115354       0.011
   0.12692126  0.02115354  0.02115354       0.011
   0.04230709  0.04230709  0.02115354       0.011
   0.06346063  0.04230709  0.02115354       0.022
   0.08461417  0.04230709  0.02115354       0.022
   0.10576771  0.04230709  0.02115354       0.022
   0.12692126  0.04230709  0.02115354       0.022
   0.06346063  0.06346063  0.02115354       0.011
   0.08461417  0.06346063  0.02115354       0.022
   0.10576771  0.06346063  0.02115354       0.022
   0.12692126  0.06346063  0.02115354       0.022
   0.08461417  0.08461417  0.02115354       0.011
   0.10576771  0.08461417  0.02115354       0.022
   0.12692126  0.08461417  0.02115354       0.022
   0.10576771  0.10576771  0.02115354       0.011
   0.12692126  0.10576771  0.02115354       0.022
   0.12692126  0.12692126  0.02115354       0.011
   0.04230709  0.04230709  0.04230709       0.004
   0.06346063  0.04230709  0.04230709       0.011
   0.08461417  0.04230709  0.04230709       0.011
   0.10576771  0.04230709  0.04230709       0.011
   0.12692126  0.04230709  0.04230709       0.011
   0.06346063  0.06346063  0.04230709       0.011
   0.08461417  0.06346063  0.04230709       0.022
   0.10576771  0.06346063  0.04230709       0.022
   0.12692126  0.06346063  0.04230709       0.022
   0.08461417  0.08461417  0.04230709       0.011
   0.10576771  0.08461417  0.04230709       0.022
   0.12692126  0.08461417  0.04230709       0.022
   0.10576771  0.10576771  0.04230709       0.011
   0.12692126  0.10576771  0.04230709       0.022
   0.12692126  0.12692126  0.04230709       0.011
   0.06346063  0.06346063  0.06346063       0.004
   0.08461417  0.06346063  0.06346063       0.011
   0.10576771  0.06346063  0.06346063       0.011
   0.12692126  0.06346063  0.06346063       0.011
   0.08461417  0.08461417  0.06346063       0.011
   0.10576771  0.08461417  0.06346063       0.022
   0.12692126  0.08461417  0.06346063       0.022
   0.10576771  0.10576771  0.06346063       0.011
   0.12692126  0.10576771  0.06346063       0.022
   0.12692126  0.12692126  0.06346063       0.011
   0.08461417  0.08461417  0.08461417       0.004
   0.10576771  0.08461417  0.08461417       0.011
   0.12692126  0.08461417  0.08461417       0.011
   0.10576771  0.10576771  0.08461417       0.011
   0.12692126  0.10576771  0.08461417       0.022
   0.12692126  0.12692126  0.08461417       0.011
   0.10576771  0.10576771  0.10576771       0.004
   0.12692126  0.10576771  0.10576771       0.011
   0.12692126  0.12692126  0.10576771       0.011
   0.12692126  0.12692126  0.12692126       0.004
 
 k-points in reciprocal lattice and weights: Automatic mesh                          
   0.00000000  0.00000000  0.00000000       0.000
   0.07692308  0.00000000  0.00000000       0.003
   0.15384615  0.00000000  0.00000000       0.003
   0.23076923  0.00000000  0.00000000       0.003
   0.30769231  0.00000000  0.00000000       0.003
   0.38461538  0.00000000  0.00000000       0.003
   0.46153846  0.00000000  0.00000000       0.003
   0.07692308  0.07692308  0.00000000       0.005
   0.15384615  0.07692308  0.00000000       0.011
   0.23076923  0.07692308  0.00000000       0.011
   0.30769231  0.07692308  0.00000000       0.011
   0.38461538  0.07692308  0.00000000       0.011
   0.46153846  0.07692308  0.00000000       0.011
   0.15384615  0.15384615  0.00000000       0.005
   0.23076923  0.15384615  0.00000000       0.011
   0.30769231  0.15384615  0.00000000       0.011
   0.38461538  0.15384615  0.00000000       0.011
   0.46153846  0.15384615  0.00000000       0.011
   0.23076923  0.23076923  0.00000000       0.005
   0.30769231  0.23076923  0.00000000       0.011
   0.38461538  0.23076923  0.00000000       0.011
   0.46153846  0.23076923  0.00000000       0.011
   0.30769231  0.30769231  0.00000000       0.005
   0.38461538  0.30769231  0.00000000       0.011
   0.46153846  0.30769231  0.00000000       0.011
   0.38461538  0.38461538  0.00000000       0.005
   0.46153846  0.38461538  0.00000000       0.011
   0.46153846  0.46153846  0.00000000       0.005
   0.07692308  0.07692308  0.07692308       0.004
   0.15384615  0.07692308  0.07692308       0.011
   0.23076923  0.07692308  0.07692308       0.011
   0.30769231  0.07692308  0.07692308       0.011
   0.38461538  0.07692308  0.07692308       0.011
   0.46153846  0.07692308  0.07692308       0.011
   0.15384615  0.15384615  0.07692308       0.011
   0.23076923  0.15384615  0.07692308       0.022
   0.30769231  0.15384615  0.07692308       0.022
   0.38461538  0.15384615  0.07692308       0.022
   0.46153846  0.15384615  0.07692308       0.022
   0.23076923  0.23076923  0.07692308       0.011
   0.30769231  0.23076923  0.07692308       0.022
   0.38461538  0.23076923  0.07692308       0.022
   0.46153846  0.23076923  0.07692308       0.022
   0.30769231  0.30769231  0.07692308       0.011
   0.38461538  0.30769231  0.07692308       0.022
   0.46153846  0.30769231  0.07692308       0.022
   0.38461538  0.38461538  0.07692308       0.011
   0.46153846  0.38461538  0.07692308       0.022
   0.46153846  0.46153846  0.07692308       0.011
   0.15384615  0.15384615  0.15384615       0.004
   0.23076923  0.15384615  0.15384615       0.011
   0.30769231  0.15384615  0.15384615       0.011
   0.38461538  0.15384615  0.15384615       0.011
   0.46153846  0.15384615  0.15384615       0.011
   0.23076923  0.23076923  0.15384615       0.011
   0.30769231  0.23076923  0.15384615       0.022
   0.38461538  0.23076923  0.15384615       0.022
   0.46153846  0.23076923  0.15384615       0.022
   0.30769231  0.30769231  0.15384615       0.011
   0.38461538  0.30769231  0.15384615       0.022
   0.46153846  0.30769231  0.15384615       0.022
   0.38461538  0.38461538  0.15384615       0.011
   0.46153846  0.38461538  0.15384615       0.022
   0.46153846  0.46153846  0.15384615       0.011
   0.23076923  0.23076923  0.23076923       0.004
   0.30769231  0.23076923  0.23076923       0.011
   0.38461538  0.23076923  0.23076923       0.011
   0.46153846  0.23076923  0.23076923       0.011
   0.30769231  0.30769231  0.23076923       0.011
   0.38461538  0.30769231  0.23076923       0.022
   0.46153846  0.30769231  0.23076923       0.022
   0.38461538  0.38461538  0.23076923       0.011
   0.46153846  0.38461538  0.23076923       0.022
   0.46153846  0.46153846  0.23076923       0.011
   0.30769231  0.30769231  0.30769231       0.004
   0.38461538  0.30769231  0.30769231       0.011
   0.46153846  0.30769231  0.30769231       0.011
   0.38461538  0.38461538  0.30769231       0.011
   0.46153846  0.38461538  0.30769231       0.022
   0.46153846  0.46153846  0.30769231       0.011
   0.38461538  0.38461538  0.38461538       0.004
   0.46153846  0.38461538  0.38461538       0.011
   0.46153846  0.46153846  0.38461538       0.011
   0.46153846  0.46153846  0.46153846       0.004
 
 position of ions in fractional coordinates (direct lattice) 
   0.00000000  0.00000000  0.00000000
   0.50000000  0.50000000  0.00000000
   0.50000000  0.00000000  0.50000000
   0.00000000  0.50000000  0.50000000
 
 position of ions in cartesian coordinates  (Angst):
   0.00000000  0.00000000  0.00000000
   1.85457206  1.85457206  0.00000000
   1.85457206  0.00000000  1.85457206
   0.00000000  1.85457206  1.85457206
 


--------------------------------------------------------------------------------------------------------


 k-point  1 :  0.00000.00000.0000  plane waves:   1309
 k-point  2 :  0.07690.00000.0000  plane waves:   1313
 k-point  3 :  0.15380.00000.0000  plane waves:   1305
 k-point  4 :  0.23080.00000.0000  plane waves:   1297
 k-point  5 :  0.30770.00000.0000  plane waves:   1306
 k-point  6 :  0.38460.00000.0000  plane waves:   1294
 k-point  7 :  0.46150.00000.0000  plane waves:   1278
 k-point  8 :  0.07690.07690.0000  plane waves:   1315
 k-point  9 :  0.15380.07690.0000  plane waves:   1300
 k-point 10 :  0.23080.07690.0000  plane waves:   1296
 k-point 11 :  0.30770.07690.0000  plane waves:   1299
 k-point 12 :  0.38460.07690.0000  plane waves:   1289
 k-point 13 :  0.46150.07690.0000  plane waves:   1279
 k-point 14 :  0.15380.15380.0000  plane waves:   1303
 k-point 15 :  0.23080.15380.0000  plane waves:   1300
 k-point 16 :  0.30770.15380.0000  plane waves:   1291
 k-point 17 :  0.38460.15380.0000  plane waves:   1298
 k-point 18 :  0.46150.15380.0000  plane waves:   1289
 k-point 19 :  0.23080.23080.0000  plane waves:   1292
 k-point 20 :  0.30770.23080.0000  plane waves:   1296
 k-point 21 :  0.38460.23080.0000  plane waves:   1297
 k-point 22 :  0.46150.23080.0000  plane waves:   1292
 k-point 23 :  0.30770.30770.0000  plane waves:   1290
 k-point 24 :  0.38460.30770.0000  plane waves:   1296
 k-point 25 :  0.46150.30770.0000  plane waves:   1294
 k-point 26 :  0.38460.38460.0000  plane waves:   1300
 k-point 27 :  0.46150.38460.0000  plane waves:   1298
 k-point 28 :  0.46150.46150.0000  plane waves:   1284
 k-point 29 :  0.07690.07690.0769  plane waves:   1315
 k-point 30 :  0.15380.07690.0769  plane waves:   1297
 k-point 31 :  0.23080.07690.0769  plane waves:   1295
 k-point 32 :  0.30770.07690.0769  plane waves:   1296
 k-point 33 :  0.38460.07690.0769  plane waves:   1294
 k-point 34 :  0.46150.07690.0769  plane waves:   1287
 k-point 35 :  0.15380.15380.0769  plane waves:   1297
 k-point 36 :  0.23080.15380.0769  plane waves:   1297
 k-point 37 :  0.30770.15380.0769  plane waves:   1296
 k-point 38 :  0.38460.15380.0769  plane waves:   1299
 k-point 39 :  0.46150.15380.0769  plane waves:   1294
 k-point 40 :  0.23080.23080.0769  plane waves:   1296
 k-point 41 :  0.30770.23080.0769  plane waves:   1302
 k-point 42 :  0.38460.23080.0769  plane waves:   1298
 k-point 43 :  0.46150.23080.0769  plane waves:   1286
 k-point 44 :  0.30770.30770.0769  plane waves:   1291
 k-point 45 :  0.38460.30770.0769  plane waves:   1297
 k-point 46 :  0.46150.30770.0769  plane waves:   1292
 k-point 47 :  0.38460.38460.0769  plane waves:   1296
 k-point 48 :  0.46150.38460.0769  plane waves:   1294
 k-point 49 :  0.46150.46150.0769  plane waves:   1292
 k-point 50 :  0.15380.15380.1538  plane waves:   1298
 k-point 51 :  0.23080.15380.1538  plane waves:   1298
 k-point 52 :  0.30770.15380.1538  plane waves:   1292
 k-point 53 :  0.38460.15380.1538  plane waves:   1290
 k-point 54 :  0.46150.15380.1538  plane waves:   1292
 k-point 55 :  0.23080.23080.1538  plane waves:   1295
 k-point 56 :  0.30770.23080.1538  plane waves:   1294
 k-point 57 :  0.38460.23080.1538  plane waves:   1293
 k-point 58 :  0.46150.23080.1538  plane waves:   1292
 k-point 59 :  0.30770.30770.1538  plane waves:   1297
 k-point 60 :  0.38460.30770.1538  plane waves:   1293
 k-point 61 :  0.46150.30770.1538  plane waves:   1299
 k-point 62 :  0.38460.38460.1538  plane waves:   1295
 k-point 63 :  0.46150.38460.1538  plane waves:   1293
 k-point 64 :  0.46150.46150.1538  plane waves:   1291
 k-point 65 :  0.23080.23080.2308  plane waves:   1292
 k-point 66 :  0.30770.23080.2308  plane waves:   1284
 k-point 67 :  0.38460.23080.2308  plane waves:   1291
 k-point 68 :  0.46150.23080.2308  plane waves:   1291
 k-point 69 :  0.30770.30770.2308  plane waves:   1287
 k-point 70 :  0.38460.30770.2308  plane waves:   1288
 k-point 71 :  0.46150.30770.2308  plane waves:   1293
 k-point 72 :  0.38460.38460.2308  plane waves:   1286
 k-point 73 :  0.46150.38460.2308  plane waves:   1296
 k-point 74 :  0.46150.46150.2308  plane waves:   1302
 k-point 75 :  0.30770.30770.3077  plane waves:   1286
 k-point 76 :  0.38460.30770.3077  plane waves:   1298
 k-point 77 :  0.46150.30770.3077  plane waves:   1305
 k-point 78 :  0.38460.38460.3077  plane waves:   1298
 k-point 79 :  0.46150.38460.3077  plane waves:   1300
 k-point 80 :  0.46150.46150.3077  plane waves:   1305
 k-point 81 :  0.38460.38460.3846  plane waves:   1298
 k-point 82 :  0.46150.38460.3846  plane waves:   1305
 k-point 83 :  0.46150.46150.3846  plane waves:   1312
 k-point 84 :  0.46150.46150.4615  plane waves:   1328

 maximum and minimum number of plane-waves per node :   1328  1278

 maximum number of plane-waves:   1328
 maximal index in each direction: 
   IXMAX=  6   IYMAX=  6   IZMAX=  6
   IXMIN= -7   IYMIN= -7   IZMIN= -7

 NGX is ok and might be reduce to  28
 NGY is ok and might be reduce to  28
 NGZ is ok and might be reduce to  28

 parallel 3dFFT wavefunction:
    minimum data exchange during FFTs selected (reduces bandwidth)
 parallel 3dFFT charge:
    minimum data exchange during FFTs selected (reduces bandwidth)

 For storing wavefunctions   55.74 MBYTES are necessary
 For predicting wavefunctions    1.71 MBYTES are necessary
Broyden mixing: mesh for mixing (old mesh)
   NGX = 13   NGY = 13   NGZ = 13
  (NGX  = 56   NGY  = 56   NGZ  = 56)
 gives a total of   2197 points
 initial charge density was supplied:
 charge density of overlapping atoms calculated
 number of electron   44.0000000 magnetization 
 keeping initial charge density in first step


--------------------------------------------------------------------------------------------------------


 Maximum index for augmentation-charges        14643 (set IRDMAX)


--------------------------------------------------------------------------------------------------------


 First call to EWALD:  gamma=   0.478
 Maximum number of real-space cells 3x 3x 3
 Maximum number of reciprocal cells 3x 3x 3

    FEWALD:  VPU time    0.00: CPU time    0.00


----------------------------------------- Iteration    1(   1)  ---------------------------------------


    POTLOK:  VPU time    0.01: CPU time    0.01
    SETDIJ:  VPU time    0.02: CPU time    0.02
    EDDAV :  VPU time    1.47: CPU time    1.50
    DOS   :  VPU time    0.00: CPU time   -0.00
    ------------------------------------------
      LOOP:  VPU time    1.50: CPU time    1.54

 eigenvalue-minimisations  :  5528
 total energy-change (2. order) : 0.2798393E+03  (-0.2032289E+04)
 number of electron   44.0000000 magnetization 
 augmentation part    44.0000000 magnetization 

 Free energy of the ion-electron system (eV)
  ---------------------------------------------------
  alpha Z        PSCENC =       400.59199486
  Ewald energy   TEWEN  =     -4307.48734156
  -1/2 Hartree   DENC   =     -1364.56925192
  -V(xc)+E(xc)   XCENC  =       174.77612023
  PAW double counting   =      4328.20916945    -4904.30802700
  entropy T*S    EENTRO =        -0.00014492
  eigenvalues    EBANDS =       388.71944062
  atomic energy  EATOM  =      5563.90732063
  ---------------------------------------------------
  free energy    TOTEN  =       279.83928038 eV

  energy without entropy =      279.83942531  energy(sigma->0) =      279.83935285


--------------------------------------------------------------------------------------------------------




----------------------------------------- Iteration    1(   2)  ---------------------------------------


    EDDAV :  VPU time    1.44: CPU time    1.44
    DOS   :  VPU time    0.00: CPU time   -0.00
    ------------------------------------------
      LOOP:  VPU time    1.44: CPU time    1.44

 eigenvalue-minimisations  :  5408
 total energy-change (2. order) :-0.2793833E+03  (-0.2652099E+03)
 number of electron   44.0000000 magnetization 
 augmentation part    44.0000000 magnetization 

 Free energy of the ion-electron system (eV)
  ---------------------------------------------------
  alpha Z        PSCENC =       400.59199486
  Ewald energy   TEWEN  =     -4307.48734156
  -1/2 Hartree   DENC   =     -1364.56925192
  -V(xc)+E(xc)   XCENC  =       174.77612023
  PAW double counting   =      4328.20916945    -4904.30802700
  entropy T*S    EENTRO =        -0.00026848
  eigenvalues    EBANDS =       109.33626917
  atomic energy  EATOM  =      5563.90732063
  ---------------------------------------------------
  free energy    TOTEN  =         0.45598537 eV

  energy without entropy =        0.45625385  energy(sigma->0) =        0.45611961


--------------------------------------------------------------------------------------------------------




----------------------------------------- Iteration    1(   3)  ---------------------------------------


    EDDAV :  VPU time    1.57: CPU time    1.57
    DOS   :  VPU time    0.00: CPU time   -0.00
    ------------------------------------------
      LOOP:  VPU time    1.58: CPU time    1.58

 eigenvalue-minimisations  :  6032
 total energy-change (2. order) :-0.1842154E+02  (-0.1803822E+02)
 number of electron   44.0000000 magnetization 
 augmentation part    44.0000000 magnetization 

 Free energy of the ion-electron system (eV)
  ---------------------------------------------------
  alpha Z        PSCENC =       400.59199486
  Ewald energy   TEWEN  =     -4307.48734156
  -1/2 Hartree   DENC   =     -1364.56925192
  -V(xc)+E(xc)   XCENC  =       174.77612023
  PAW double counting   =      4328.20916945    -4904.30802700
  entropy T*S    EENTRO =        -0.00016346
  eigenvalues    EBANDS =        90.91462895
  atomic energy  EATOM  =      5563.90732063
  ---------------------------------------------------
  free energy    TOTEN  =       -17.96554983 eV

  energy without entropy =      -17.96538637  energy(sigma->0) =      -17.96546810


--------------------------------------------------------------------------------------------------------




----------------------------------------- Iteration    1(   4)  ---------------------------------------


    EDDAV :  VPU time    1.52: CPU time    1.52
    DOS   :  VPU time    0.00: CPU time   -0.00
    ------------------------------------------
      LOOP:  VPU time    1.53: CPU time    1.53

 eigenvalue-minimisations  :  5800
 total energy-change (2. order) :-0.2033993E+00  (-0.2032769E+00)
 number of electron   44.0000000 magnetization 
 augmentation part    44.0000000 magnetization 

 Free energy of the ion-electron system (eV)
  ---------------------------------------------------
  alpha Z        PSCENC =       400.59199486
  Ewald energy   TEWEN  =     -4307.48734156
  -1/2 Hartree   DENC   =     -1364.56925192
  -V(xc)+E(xc)   XCENC  =       174.77612023
  PAW double counting   =      4328.20916945    -4904.30802700
  entropy T*S    EENTRO =        -0.00014595
  eigenvalues    EBANDS =        90.71121216
  atomic energy  EATOM  =      5563.90732063
  ---------------------------------------------------
  free energy    TOTEN  =       -18.16894911 eV

  energy without entropy =      -18.16880316  energy(sigma->0) =      -18.16887613


--------------------------------------------------------------------------------------------------------




----------------------------------------- Iteration    1(   5)  ---------------------------------------


    EDDAV :  VPU time    1.59: CPU time    1.59
    DOS   :  VPU time    0.00: CPU time   -0.00
    CHARGE:  VPU time    0.08: CPU time    0.08
    MIXING:  VPU time    0.00: CPU time    0.00
    ------------------------------------------
      LOOP:  VPU time    1.68: CPU time    1.68

 eigenvalue-minimisations  :  6208
 total energy-change (2. order) :-0.3685849E-03  (-0.3685798E-03)
 number of electron   44.0000003 magnetization 
 augmentation part    26.8142334 magnetization 

 Broyden mixing:
  rms(total) = 0.13770E+01    rms(broyden)= 0.13770E+01
  rms(prec ) = 0.32755E+01
  weight for this iteration     100.00

 Free energy of the ion-electron system (eV)
  ---------------------------------------------------
  alpha Z        PSCENC =       400.59199486
  Ewald energy   TEWEN  =     -4307.48734156
  -1/2 Hartree   DENC   =     -1364.56925192
  -V(xc)+E(xc)   XCENC  =       174.77612023
  PAW double counting   =      4328.20916945    -4904.30802700
  entropy T*S    EENTRO =        -0.00014593
  eigenvalues    EBANDS =        90.71084355
  atomic energy  EATOM  =      5563.90732063
  ---------------------------------------------------
  free energy    TOTEN  =       -18.16931769 eV

  energy without entropy =      -18.16917176  energy(sigma->0) =      -18.16924473


--------------------------------------------------------------------------------------------------------




----------------------------------------- Iteration    1(   6)  ---------------------------------------


    POTLOK:  VPU time    0.01: CPU time    0.01
    SETDIJ:  VPU time    0.02: CPU time    0.02
    EDDAV :  VPU time    1.53: CPU time    1.53
    DOS   :  VPU time    0.00: CPU time   -0.00
    CHARGE:  VPU time    0.08: CPU time    0.08
    MIXING:  VPU time    0.00: CPU time    0.00
    ------------------------------------------
      LOOP:  VPU time    1.64: CPU time    1.64

 eigenvalue-minimisations  :  5872
 total energy-change (2. order) : 0.1871192E+01  (-0.2516190E+01)
 number of electron   44.0000003 magnetization 
 augmentation part    29.9858518 magnetization 

 Broyden mixing:
  rms(total) = 0.69543E+00    rms(broyden)= 0.69538E+00
  rms(prec ) = 0.15053E+01
  weight for this iteration     100.00

 eigenvalues of (default mixing * dielectric matrix)
  average eigenvalue GAMMA=   0.6656
  0.6656

 Free energy of the ion-electron system (eV)
  ---------------------------------------------------
  alpha Z        PSCENC =       400.59199486
  Ewald energy   TEWEN  =     -4307.48734156
  -1/2 Hartree   DENC   =     -1263.56817038
  -V(xc)+E(xc)   XCENC  =       169.70346337
  PAW double counting   =      4211.61542399    -4754.63044422
  entropy T*S    EENTRO =        -0.00009363
  eigenvalues    EBANDS =       -36.43027917
  atomic energy  EATOM  =      5563.90732063
  ---------------------------------------------------
  free energy    TOTEN  =       -16.29812611 eV

  energy without entropy =      -16.29803248  energy(sigma->0) =      -16.29807929


--------------------------------------------------------------------------------------------------------




----------------------------------------- Iteration    1(   7)  ---------------------------------------


    POTLOK:  VPU time    0.01: CPU time    0.01
    SETDIJ:  VPU time    0.02: CPU time    0.02
    EDDAV :  VPU time    1.57: CPU time    1.57
    DOS   :  VPU time    0.00: CPU time   -0.00
    CHARGE:  VPU time    0.08: CPU time    0.08
    MIXING:  VPU time    0.00: CPU time    0.00
    ------------------------------------------
      LOOP:  VPU time    1.69: CPU time    1.69

 eigenvalue-minimisations  :  6112
 total energy-change (2. order) : 0.1449413E+01  (-0.4994657E+00)
 number of electron   44.0000003 magnetization 
 augmentation part    28.7788914 magnetization 

 Broyden mixing:
  rms(total) = 0.99380E-01    rms(broyden)= 0.99353E-01
  rms(prec ) = 0.24911E+00
  weight for this iteration     100.00

 eigenvalues of (default mixing * dielectric matrix)
  average eigenvalue GAMMA=   1.2767
  1.9140  0.6393

 Free energy of the ion-electron system (eV)
  ---------------------------------------------------
  alpha Z        PSCENC =       400.59199486
  Ewald energy   TEWEN  =     -4307.48734156
  -1/2 Hartree   DENC   =     -1294.02802864
  -V(xc)+E(xc)   XCENC  =       171.30016236
  PAW double counting   =      4294.27212014    -4861.54968682
  entropy T*S    EENTRO =        -0.00010232
  eigenvalues    EBANDS =        18.14484786
  atomic energy  EATOM  =      5563.90732063
  ---------------------------------------------------
  free energy    TOTEN  =       -14.84871348 eV

  energy without entropy =      -14.84861117  energy(sigma->0) =      -14.84866233


--------------------------------------------------------------------------------------------------------




----------------------------------------- Iteration    1(   8)  ---------------------------------------


    POTLOK:  VPU time    0.01: CPU time    0.01
    SETDIJ:  VPU time    0.02: CPU time    0.02
    EDDAV :  VPU time    1.51: CPU time    1.51
    DOS   :  VPU time    0.00: CPU time   -0.00
    CHARGE:  VPU time    0.08: CPU time    0.08
    MIXING:  VPU time    0.00: CPU time    0.00
    ------------------------------------------
      LOOP:  VPU time    1.63: CPU time    1.63

 eigenvalue-minimisations  :  5792
 total energy-change (2. order) : 0.2723622E-01  (-0.5062197E-02)
 number of electron   44.0000003 magnetization 
 augmentation part    28.7305877 magnetization 

 Broyden mixing:
  rms(total) = 0.73678E-01    rms(broyden)= 0.73675E-01
  rms(prec ) = 0.17851E+00
  weight for this iteration     100.00

 eigenvalues of (default mixing * dielectric matrix)
  average eigenvalue GAMMA=   1.4065
  0.6663  0.9992  2.5541

 Free energy of the ion-electron system (eV)
  ---------------------------------------------------
  alpha Z        PSCENC =       400.59199486
  Ewald energy   TEWEN  =     -4307.48734156
  -1/2 Hartree   DENC   =     -1284.81057872
  -V(xc)+E(xc)   XCENC  =       170.89386034
  PAW double counting   =      4338.82071173    -4915.47491673
  entropy T*S    EENTRO =        -0.00010232
  eigenvalues    EBANDS =        18.73757449
  atomic energy  EATOM  =      5563.90732063
  ---------------------------------------------------
  free energy    TOTEN  =       -14.82147727 eV

  energy without entropy =      -14.82137495  energy(sigma->0) =      -14.82142611


--------------------------------------------------------------------------------------------------------




----------------------------------------- Iteration    1(   9)  ---------------------------------------


    POTLOK:  VPU time    0.01: CPU time    0.01
    SETDIJ:  VPU time    0.02: CPU time    0.02
    EDDAV :  VPU time    1.59: CPU time    1.59
    DOS   :  VPU time    0.00: CPU time   -0.00
    CHARGE:  VPU time    0.08: CPU time    0.08
    MIXING:  VPU time    0.00: CPU time    0.00
    ------------------------------------------
      LOOP:  VPU time    1.70: CPU time    1.70

 eigenvalue-minimisations  :  6192
 total energy-change (2. order) : 0.1066429E-01  (-0.2142160E-02)
 number of electron   44.0000003 magnetization 
 augmentation part    28.8301831 magnetization 

 Broyden mixing:
  rms(total) = 0.31341E-02    rms(broyden)= 0.31308E-02
  rms(prec ) = 0.62817E-02
  weight for this iteration     100.00

 eigenvalues of (default mixing * dielectric matrix)
  average eigenvalue GAMMA=   1.6046
  0.6708  0.9214  2.7097  2.1164

 Free energy of the ion-electron system (eV)
  ---------------------------------------------------
  alpha Z        PSCENC =       400.59199486
  Ewald energy   TEWEN  =     -4307.48734156
  -1/2 Hartree   DENC   =     -1278.70065651
  -V(xc)+E(xc)   XCENC  =       170.60275548
  PAW double counting   =      4348.74072554    -4926.72134532
  entropy T*S    EENTRO =        -0.00010237
  eigenvalues    EBANDS =        14.25583628
  atomic energy  EATOM  =      5563.90732063
  ---------------------------------------------------
  free energy    TOTEN  =       -14.81081298 eV

  energy without entropy =      -14.81071061  energy(sigma->0) =      -14.81076179


--------------------------------------------------------------------------------------------------------




----------------------------------------- Iteration    1(  10)  ---------------------------------------


    POTLOK:  VPU time    0.01: CPU time    0.01
    SETDIJ:  VPU time    0.02: CPU time    0.02
    EDDAV :  VPU time    1.52: CPU time    1.52
    DOS   :  VPU time    0.00: CPU time   -0.00
    CHARGE:  VPU time    0.08: CPU time    0.08
    MIXING:  VPU time    0.00: CPU time    0.00
    ------------------------------------------
      LOOP:  VPU time    1.63: CPU time    1.63

 eigenvalue-minimisations  :  5840
 total energy-change (2. order) :-0.7409264E-04  (-0.5912668E-04)
 number of electron   44.0000003 magnetization 
 augmentation part    28.8279732 magnetization 

 Broyden mixing:
  rms(total) = 0.11122E-02    rms(broyden)= 0.11121E-02
  rms(prec ) = 0.19046E-02
  weight for this iteration     100.00

 eigenvalues of (default mixing * dielectric matrix)
  average eigenvalue GAMMA=   1.5022
  2.5051  2.5051  0.6690  0.9159  0.9159

 Free energy of the ion-electron system (eV)
  ---------------------------------------------------
  alpha Z        PSCENC =       400.59199486
  Ewald energy   TEWEN  =     -4307.48734156
  -1/2 Hartree   DENC   =     -1278.88767432
  -V(xc)+E(xc)   XCENC  =       170.61186791
  PAW double counting   =      4349.95709619    -4927.86386650
  entropy T*S    EENTRO =        -0.00010236
  eigenvalues    EBANDS =        14.35981808
  atomic energy  EATOM  =      5563.90732063
  ---------------------------------------------------
  free energy    TOTEN  =       -14.81088707 eV

  energy without entropy =      -14.81078471  energy(sigma->0) =      -14.81083589


--------------------------------------------------------------------------------------------------------




----------------------------------------- Iteration    1(  11)  ---------------------------------------


    POTLOK:  VPU time    0.01: CPU time    0.01
    SETDIJ:  VPU time    0.02: CPU time    0.02
    EDDAV :  VPU time    1.61: CPU time    1.61
    DOS   :  VPU time    0.00: CPU time   -0.00
    CHARGE:  VPU time    0.08: CPU time    0.08
    MIXING:  VPU time    0.00: CPU time    0.00
    ------------------------------------------
      LOOP:  VPU time    1.72: CPU time    1.72

 eigenvalue-minimisations  :  6288
 total energy-change (2. order) : 0.2780069E-05  (-0.7710637E-06)
 number of electron   44.0000003 magnetization 
 augmentation part    28.8269458 magnetization 

 Broyden mixing:
  rms(total) = 0.61541E-03    rms(broyden)= 0.61539E-03
  rms(prec ) = 0.15007E-02
  weight for this iteration     100.00

 eigenvalues of (default mixing * dielectric matrix)
  average eigenvalue GAMMA=   1.4981
  2.5987  2.4859  0.6696  0.9488  1.0922  1.1934

 Free energy of the ion-electron system (eV)
  ---------------------------------------------------
  alpha Z        PSCENC =       400.59199486
  Ewald energy   TEWEN  =     -4307.48734156
  -1/2 Hartree   DENC   =     -1279.04526377
  -V(xc)+E(xc)   XCENC  =       170.61902203
  PAW double counting   =      4350.87577995    -4928.67564320
  entropy T*S    EENTRO =        -0.00010236
  eigenvalues    EBANDS =        14.40334912
  atomic energy  EATOM  =      5563.90732063
  ---------------------------------------------------
  free energy    TOTEN  =       -14.81088429 eV

  energy without entropy =      -14.81078193  energy(sigma->0) =      -14.81083311


--------------------------------------------------------------------------------------------------------




----------------------------------------- Iteration    1(  12)  ---------------------------------------


    POTLOK:  VPU time    0.01: CPU time    0.01
    SETDIJ:  VPU time    0.02: CPU time    0.02
    EDDAV :  VPU time    1.55: CPU time    1.56
    DOS   :  VPU time    0.00: CPU time   -0.00
    CHARGE:  VPU time    0.08: CPU time    0.08
    MIXING:  VPU time    0.00: CPU time    0.00
    ------------------------------------------
      LOOP:  VPU time    1.67: CPU time    1.67

 eigenvalue-minimisations  :  6032
 total energy-change (2. order) :-0.4947036E-05  (-0.7615704E-07)
 number of electron   44.0000003 magnetization 
 augmentation part    28.8275708 magnetization 

 Broyden mixing:
  rms(total) = 0.88950E-04    rms(broyden)= 0.88934E-04
  rms(prec ) = 0.22651E-03
  weight for this iteration     100.00

 eigenvalues of (default mixing * dielectric matrix)
  average eigenvalue GAMMA=   1.6224
  2.6294  2.5534  2.5534  0.6696  0.9963  0.9963  0.9588

 Free energy of the ion-electron system (eV)
  ---------------------------------------------------
  alpha Z        PSCENC =       400.59199486
  Ewald energy   TEWEN  =     -4307.48734156
  -1/2 Hartree   DENC   =     -1278.96241390
  -V(xc)+E(xc)   XCENC  =       170.61513777
  PAW double counting   =      4351.19973001    -4929.04652168
  entropy T*S    EENTRO =        -0.00010236
  eigenvalues    EBANDS =        14.37130698
  atomic energy  EATOM  =      5563.90732063
  ---------------------------------------------------
  free energy    TOTEN  =       -14.81088923 eV

  energy without entropy =      -14.81078687  energy(sigma->0) =      -14.81083805


--------------------------------------------------------------------------------------------------------




----------------------------------------- Iteration    1(  13)  ---------------------------------------


    POTLOK:  VPU time    0.01: CPU time    0.01
    SETDIJ:  VPU time    0.02: CPU time    0.02
    EDDAV :  VPU time    1.49: CPU time    1.49
    DOS   :  VPU time    0.00: CPU time   -0.00
    CHARGE:  VPU time    0.08: CPU time    0.08
    MIXING:  VPU time    0.00: CPU time    0.00
    ------------------------------------------
      LOOP:  VPU time    1.60: CPU time    1.60

 eigenvalue-minimisations  :  5656
 total energy-change (2. order) :-0.3188306E-06  (-0.3905066E-08)
 number of electron   44.0000003 magnetization 
 augmentation part    28.8275025 magnetization 

 Broyden mixing:
  rms(total) = 0.33148E-04    rms(broyden)= 0.33147E-04
  rms(prec ) = 0.82791E-04
  weight for this iteration     100.00

 eigenvalues of (default mixing * dielectric matrix)
  average eigenvalue GAMMA=   1.6162
  2.8142  2.5406  2.5406  0.6696  1.4253  0.9884  0.9884  0.9627

 Free energy of the ion-electron system (eV)
  ---------------------------------------------------
  alpha Z        PSCENC =       400.59199486
  Ewald energy   TEWEN  =     -4307.48734156
  -1/2 Hartree   DENC   =     -1278.96765687
  -V(xc)+E(xc)   XCENC  =       170.61533934
  PAW double counting   =      4351.21556643    -4929.06123357
  entropy T*S    EENTRO =        -0.00010236
  eigenvalues    EBANDS =        14.37522354
  atomic energy  EATOM  =      5563.90732063
  ---------------------------------------------------
  free energy    TOTEN  =       -14.81088955 eV

  energy without entropy =      -14.81078719  energy(sigma->0) =      -14.81083837


--------------------------------------------------------------------------------------------------------




----------------------------------------- Iteration    1(  14)  ---------------------------------------


    POTLOK:  VPU time    0.01: CPU time    0.01
    SETDIJ:  VPU time    0.02: CPU time    0.02
    EDDAV :  VPU time    1.09: CPU time    1.09
    DOS   :  VPU time    0.00: CPU time   -0.00
    CHARGE:  VPU time    0.08: CPU time    0.08
    MIXING:  VPU time    0.00: CPU time    0.00
    ------------------------------------------
      LOOP:  VPU time    1.20: CPU time    1.20

 eigenvalue-minimisations  :  3456
 total energy-change (2. order) :-0.2046818E-07  (-0.1777200E-09)
 number of electron   44.0000003 magnetization 
 augmentation part    28.8274766 magnetization 

 Broyden mixing:
  rms(total) = 0.22505E-05    rms(broyden)= 0.22485E-05
  rms(prec ) = 0.36942E-05
  weight for this iteration     100.00

 eigenvalues of (default mixing * dielectric matrix)
  average eigenvalue GAMMA=   1.6566
  2.6514  2.6514  2.5310  2.4393  0.6696  1.0326  1.0326  0.9507  0.9507

 Free energy of the ion-electron system (eV)
  ---------------------------------------------------
  alpha Z        PSCENC =       400.59199486
  Ewald energy   TEWEN  =     -4307.48734156
  -1/2 Hartree   DENC   =     -1278.97173849
  -V(xc)+E(xc)   XCENC  =       170.61550194
  PAW double counting   =      4351.22267611    -4929.06618328
  entropy T*S    EENTRO =        -0.00010236
  eigenvalues    EBANDS =        14.37698258
  atomic energy  EATOM  =      5563.90732063
  ---------------------------------------------------
  free energy    TOTEN  =       -14.81088957 eV

  energy without entropy =      -14.81078721  energy(sigma->0) =      -14.81083839


--------------------------------------------------------------------------------------------------------




----------------------------------------- Iteration    1(  15)  ---------------------------------------


    POTLOK:  VPU time    0.01: CPU time    0.01
    SETDIJ:  VPU time    0.02: CPU time    0.02
    EDDAV :  VPU time    1.06: CPU time    1.06
    DOS   :  VPU time   -0.00: CPU time   -0.00
    CHARGE:  VPU time    0.08: CPU time    0.08
    MIXING:  VPU time    0.00: CPU time    0.00
    ------------------------------------------
      LOOP:  VPU time    1.17: CPU time    1.17

 eigenvalue-minimisations  :  3304
 total energy-change (2. order) : 0.2050638E-07  (-0.5791625E-10)
 number of electron   44.0000003 magnetization 
 augmentation part    28.8274762 magnetization 

 Broyden mixing:
  rms(total) = 0.16703E-05    rms(broyden)= 0.16703E-05
  rms(prec ) = 0.33456E-05
  weight for this iteration     100.00

 eigenvalues of (default mixing * dielectric matrix)
  average eigenvalue GAMMA=   1.6296
  3.0764  2.6400  2.6400  2.4459  0.6696  1.0141  1.0141  0.9470  0.9244  0.9244

 Free energy of the ion-electron system (eV)
  ---------------------------------------------------
  alpha Z        PSCENC =       400.59199486
  Ewald energy   TEWEN  =     -4307.48734156
  -1/2 Hartree   DENC   =     -1278.97173557
  -V(xc)+E(xc)   XCENC  =       170.61550302
  PAW double counting   =      4351.22057633    -4929.06415359
  entropy T*S    EENTRO =        -0.00010236
  eigenvalues    EBANDS =        14.37704869
  atomic energy  EATOM  =      5563.90732063
  ---------------------------------------------------
  free energy    TOTEN  =       -14.81088955 eV

  energy without entropy =      -14.81078719  energy(sigma->0) =      -14.81083837


--------------------------------------------------------------------------------------------------------




----------------------------------------- Iteration    1(  16)  ---------------------------------------


    POTLOK:  VPU time    0.01: CPU time    0.01
    SETDIJ:  VPU time    0.02: CPU time    0.02
    EDDAV :  VPU time    1.03: CPU time    1.03
    DOS   :  VPU time    0.00: CPU time   -0.00
    CHARGE:  VPU time    0.08: CPU time    0.08
    MIXING:  VPU time    0.00: CPU time    0.00
    ------------------------------------------
      LOOP:  VPU time    1.15: CPU time    1.15

 eigenvalue-minimisations  :  3168
 total energy-change (2. order) : 0.1142416E-07  (-0.6113210E-11)
 number of electron   44.0000003 magnetization 
 augmentation part    28.8274741 magnetization 

 Broyden mixing:
  rms(total) = 0.12075E-05    rms(broyden)= 0.12074E-05
  rms(prec ) = 0.25108E-05
  weight for this iteration     100.00

 eigenvalues of (default mixing * dielectric matrix)
  average eigenvalue GAMMA=   1.5539
  2.7332  2.6009  2.6009  2.5105  0.6696  1.0936  0.9586  0.9755  0.9755  0.9873
  0.9873

 Free energy of the ion-electron system (eV)
  ---------------------------------------------------
  alpha Z        PSCENC =       400.59199486
  Ewald energy   TEWEN  =     -4307.48734156
  -1/2 Hartree   DENC   =     -1278.97152373
  -V(xc)+E(xc)   XCENC  =       170.61549432
  PAW double counting   =      4351.21949883    -4929.06332184
  entropy T*S    EENTRO =        -0.00010236
  eigenvalues    EBANDS =        14.37709131
  atomic energy  EATOM  =      5563.90732063
  ---------------------------------------------------
  free energy    TOTEN  =       -14.81088954 eV

  energy without entropy =      -14.81078718  energy(sigma->0) =      -14.81083836


--------------------------------------------------------------------------------------------------------




----------------------------------------- Iteration    1(  17)  ---------------------------------------


    POTLOK:  VPU time    0.01: CPU time    0.01
    SETDIJ:  VPU time    0.02: CPU time    0.02
    EDDAV :  VPU time    1.03: CPU time    1.03
    DOS   :  VPU time    0.00: CPU time   -0.00
    ------------------------------------------
      LOOP:  VPU time    1.06: CPU time    1.06

 eigenvalue-minimisations  :  3128
 total energy-change (2. order) : 0.1922672E-08  (-0.6937804E-12)
 number of electron   44.0000003 magnetization 
 augmentation part    28.8274741 magnetization 

 Free energy of the ion-electron system (eV)
  ---------------------------------------------------
  alpha Z        PSCENC =       400.59199486
  Ewald energy   TEWEN  =     -4307.48734156
  -1/2 Hartree   DENC   =     -1278.97153676
  -V(xc)+E(xc)   XCENC  =       170.61549486
  PAW double counting   =      4351.21941907    -4929.06321064
  entropy T*S    EENTRO =        -0.00010236
  eigenvalues    EBANDS =        14.37707236
  atomic energy  EATOM  =      5563.90732063
  ---------------------------------------------------
  free energy    TOTEN  =       -14.81088954 eV

  energy without entropy =      -14.81078718  energy(sigma->0) =      -14.81083836


--------------------------------------------------------------------------------------------------------




 average (electrostatic) potential at core
  the test charge radii are     1.0053
  (the norm of the test charge is              1.0000)
       1 -40.3929       2 -40.3929       3 -40.3929       4 -40.3929
 
 
 
 E-fermi :   3.1489     XC(G=0): -12.3547     alpha+bet : -8.9158
   add alpha+bet to get absolut eigen values

 k-point   1 :       0.0000    0.0000    0.0000
  band No.  band energies     occupation 
      1      -5.6208      2.00000
      2      -1.3041      2.00000
      3      -1.3041      2.00000
      4      -1.3041      2.00000
      5      -0.8990      2.00000
      6      -0.8990      2.00000
      7      -0.8990      2.00000
      8       0.3343      2.00000
      9       0.3343      2.00000
     10       0.3343      2.00000
     11       1.0688      2.00000
     12       1.0688      2.00000
     13       1.5573      2.00000
     14       1.5573      2.00000
     15       1.5573      2.00000
     16       1.6941      2.00000
     17       1.6941      2.00000
     18       1.6941      2.00000
     19       1.6941      2.00000
     20       1.6941      2.00000
     21       1.6941      2.00000
     22       4.7233      0.00000
     23       4.7233      0.00000
     24       4.7233      0.00000
     25       9.7506      0.00000
     26       9.7506      0.00000
     27       9.7506      0.00000
     28      15.7249      0.00000
     29      15.7249      0.00000
     30      15.7249      0.00000
     31      15.7249      0.00000
     32      15.7249      0.00000

 k-point   2 :       0.0769    0.0000    0.0000
  band No.  band energies     occupation 
      1      -5.5526      2.00000
      2      -1.3057      2.00000
      3      -1.2734      2.00000
      4      -1.2734      2.00000
      5      -0.8819      2.00000
      6      -0.8810      2.00000
      7      -0.8810      2.00000
      8       0.3156      2.00000
      9       0.3496      2.00000
     10       0.3496      2.00000
     11       1.0518      2.00000
     12       1.0757      2.00000
     13       1.5353      2.00000
     14       1.5353      2.00000
     15       1.5500      2.00000
     16       1.5861      2.00000
     17       1.5861      2.00000
     18       1.6681      2.00000
     19       1.6681      2.00000
     20       1.6942      2.00000
     21       1.6942      2.00000
     22       4.2695      0.00000
     23       4.8932      0.00000
     24       4.8932      0.00000
     25       9.7781      0.00000
     26       9.7781      0.00000
     27      10.3435      0.00000
     28      15.2467      0.00000
     29      15.2467      0.00000
     30      15.4066      0.00000
     31      15.4066      0.00000
     32      15.8232      0.00000

 k-point   3 :       0.1538    0.0000    0.0000
  band No.  band energies     occupation 
      1      -5.3493      2.00000
      2      -1.3218      2.00000
      3      -1.1851      2.00000
      4      -1.1851      2.00000
      5      -0.8314      2.00000
      6      -0.8264      2.00000
      7      -0.8264      2.00000
      8       0.2606      2.00000
      9       0.3950      2.00000
     10       0.3950      2.00000
     11       1.0025      2.00000
     12       1.0962      2.00000
     13       1.3183      2.00000
     14       1.3183      2.00000
     15       1.4712      2.00000
     16       1.4712      2.00000
     17       1.5288      2.00000
     18       1.5930      2.00000
     19       1.5930      2.00000
     20       1.6943      2.00000
     21       1.6943      2.00000
     22       3.3003      0.00000
     23       5.3463      0.00000
     24       5.3463      0.00000
     25       9.8628      0.00000
     26       9.8628      0.00000
     27      11.7392      0.00000
     28      14.2150      0.00000
     29      14.2150      0.00000
     30      14.6549      0.00000
     31      14.6549      0.00000
     32      16.1148      0.00000

 k-point   4 :       0.2308    0.0000    0.0000
  band No.  band energies     occupation 
      1      -5.0146      2.00000
      2      -1.3924      2.00000
      3      -1.0508      2.00000
      4      -1.0508      2.00000
      5      -0.7501      2.00000
      6      -0.7346      2.00000
      7      -0.7346      2.00000
      8       0.1730      2.00000
      9       0.4696      2.00000
     10       0.4696      2.00000
     11       0.9261      2.00000
     12       0.9832      2.00000
     13       0.9832      2.00000
     14       1.1291      2.00000
     15       1.3708      2.00000
     16       1.3708      2.00000
     17       1.4772      2.00000
     18       1.4772      2.00000
     19       1.4948      2.00000
     20       1.6944      2.00000
     21       1.6944      2.00000
     22       2.2749      2.00000
     23       5.9892      0.00000
     24       5.9892      0.00000
     25      10.0110      0.00000
     26      10.0110      0.00000
     27      13.0370      0.00000
     28      13.0370      0.00000
     29      13.5123      0.00000
     30      13.7670      0.00000
     31      13.7670      0.00000
     32      16.5900      0.00000

 k-point   5 :       0.3077    0.0000    0.0000
  band No.  band energies     occupation 
      1      -4.5557      2.00000
      2      -1.5978      2.00000
      3      -0.8915      2.00000
      4      -0.8915      2.00000
      5      -0.6422      2.00000
      6      -0.6044      2.00000
      7      -0.6044      2.00000
      8       0.0583      2.00000
      9       0.5715      2.00000
     10       0.5715      2.00000
     11       0.6399      2.00000
     12       0.6399      2.00000
     13       0.8326      2.00000
     14       1.1727      2.00000
     15       1.2475      2.00000
     16       1.2475      2.00000
     17       1.3322      2.00000
     18       1.3322      2.00000
     19       1.4316      2.00000
     20       1.4501      2.00000
     21       1.6946      2.00000
     22       1.6946      2.00000
     23       6.7613      0.00000
     24       6.7613      0.00000
     25      10.2326      0.00000
     26      10.2326      0.00000
     27      11.8512      0.00000
     28      11.8512      0.00000
     29      12.9048      0.00000
     30      12.9048      0.00000
     31      15.4933      0.00000
     32      17.2351      0.00000

 k-point   6 :       0.3846    0.0000    0.0000
  band No.  band energies     occupation 
      1      -3.9861      2.00000
      2      -2.0242      2.00000
      3      -0.7410      2.00000
      4      -0.7410      2.00000
      5      -0.5134      2.00000
      6      -0.4346      2.00000
      7      -0.4346      2.00000
      8      -0.0761      2.00000
      9       0.3168      2.00000
     10       0.3168      2.00000
     11       0.6979      2.00000
     12       0.6979      2.00000
     13       0.7391      2.00000
     14       0.9096      2.00000
     15       1.1268      2.00000
     16       1.1268      2.00000
     17       1.1707      2.00000
     18       1.1707      2.00000
     19       1.2243      2.00000
     20       1.3975      2.00000
     21       1.6947      2.00000
     22       1.6947      2.00000
     23       7.6319      0.00000
     24       7.6319      0.00000
     25      10.5400      0.00000
     26      10.5400      0.00000
     27      10.7034      0.00000
     28      10.7034      0.00000
     29      12.1382      0.00000
     30      12.1382      0.00000
     31      17.6095      0.00000
     32      18.0346      0.00000

 k-point   7 :       0.4615    0.0000    0.0000
  band No.  band energies     occupation 
      1      -3.3317      2.00000
      2      -2.6443      2.00000
      3      -0.6454      2.00000
      4      -0.6454      2.00000
      5      -0.3706      2.00000
      6      -0.2242      2.00000
      7      -0.2242      2.00000
      8      -0.2220      2.00000
      9       0.0269      2.00000
     10       0.0269      2.00000
     11       0.6758      2.00000
     12       0.6987      2.00000
     13       0.8443      2.00000
     14       0.8443      2.00000
     15       1.0046      2.00000
     16       1.0046      2.00000
     17       1.0480      2.00000
     18       1.0480      2.00000
     19       1.2813      2.00000
     20       1.3401      2.00000
     21       1.6948      2.00000
     22       1.6948      2.00000
     23       8.5852      0.00000
     24       8.5852      0.00000
     25       9.6115      0.00000
     26       9.6115      0.00000
     27      10.9408      0.00000
     28      10.9408      0.00000
     29      11.4993      0.00000
     30      11.4993      0.00000
     31      18.9727      0.00000
     32      18.9727      0.00000

 k-point   8 :       0.0769    0.0769    0.0000
  band No.  band energies     occupation 
      1      -5.4847      2.00000
      2      -1.2744      2.00000
      3      -1.2744      2.00000
      4      -1.2434      2.00000
      5      -0.8641      2.00000
      6      -0.8641      2.00000
      7      -0.8634      2.00000
      8       0.3052      2.00000
      9       0.3568      2.00000
     10       0.3635      2.00000
     11       1.0471      2.00000
     12       1.0717      2.00000
     13       1.5046      2.00000
     14       1.5098      2.00000
     15       1.5098      2.00000
     16       1.5142      2.00000
     17       1.5737      2.00000
     18       1.5737      2.00000
     19       1.6681      2.00000
     20       1.6681      2.00000
     21       1.6774      2.00000
     22       4.4358      0.00000
     23       4.4358      0.00000
     24       5.0535      0.00000
     25       9.8060      0.00000
     26      10.3792      0.00000
     27      10.3792      0.00000
     28      14.2575      0.00000
     29      15.3394      0.00000
     30      15.3394      0.00000
     31      15.5003      0.00000
     32      15.5003      0.00000

 k-point   9 :       0.1538    0.0769    0.0000
  band No.  band energies     occupation 
      1      -5.2821      2.00000
      2      -1.2885      2.00000
      3      -1.1841      2.00000
      4      -1.1571      2.00000
      5      -0.8145      2.00000
      6      -0.8105      2.00000
      7      -0.8104      2.00000
      8       0.2555      2.00000
      9       0.3979      2.00000
     10       0.4048      2.00000
     11       1.0041      2.00000
     12       1.0900      2.00000
     13       1.2653      2.00000
     14       1.2665      2.00000
     15       1.4253      2.00000
     16       1.4523      2.00000
     17       1.4792      2.00000
     18       1.5441      2.00000
     19       1.5929      2.00000
     20       1.6680      2.00000
     21       1.6684      2.00000
     22       3.4744      0.00000
     23       4.8697      0.00000
     24       5.4874      0.00000
     25       9.8917      0.00000
     26      10.4891      0.00000
     27      11.7848      0.00000
     28      13.0634      0.00000
     29      14.3015      0.00000
     30      14.7399      0.00000
     31      15.6137      0.00000
     32      15.7035      0.00000

 k-point  10 :       0.2308    0.0769    0.0000
  band No.  band energies     occupation 
      1      -4.9486      2.00000
      2      -1.3554      2.00000
      3      -1.0465      2.00000
      4      -1.0255      2.00000
      5      -0.7345      2.00000
      6      -0.7216      2.00000
      7      -0.7202      2.00000
      8       0.1707      2.00000
      9       0.4711      2.00000
     10       0.4712      2.00000
     11       0.9327      2.00000
     12       0.9327      2.00000
     13       0.9505      2.00000
     14       1.1261      2.00000
     15       1.2723      2.00000
     16       1.3552      2.00000
     17       1.3774      2.00000
     18       1.4769      2.00000
     19       1.4999      2.00000
     20       1.6663      2.00000
     21       1.6679      2.00000
     22       2.4906      2.00000
     23       5.4698      0.00000
     24       6.1126      0.00000
     25      10.0403      0.00000
     26      10.6803      0.00000
     27      11.8813      0.00000
     28      13.1208      0.00000
     29      13.5629      0.00000
     30      13.8436      0.00000
     31      14.9729      0.00000
     32      16.0586      0.00000

 k-point  11 :       0.3077    0.0769    0.0000
  band No.  band energies     occupation 
      1      -4.4916      2.00000
      2      -1.5557      2.00000
      3      -0.8827      2.00000
      4      -0.8683      2.00000
      5      -0.6285      2.00000
      6      -0.5975      2.00000
      7      -0.5922      2.00000
      8       0.0587      2.00000
      9       0.5547      2.00000
     10       0.5724      2.00000
     11       0.5934      2.00000
     12       0.6216      2.00000
     13       0.8528      2.00000
     14       1.0286      2.00000
     15       1.1745      2.00000
     16       1.2359      2.00000
     17       1.2541      2.00000
     18       1.3318      2.00000
     19       1.4306      2.00000
     20       1.6659      2.00000
     21       1.6677      2.00000
     22       1.7671      2.00000
     23       6.1754      0.00000
     24       6.8714      0.00000
     25      10.2481      0.00000
     26      10.7750      0.00000
     27      10.9643      0.00000
     28      11.9349      0.00000
     29      12.9738      0.00000
     30      14.1002      0.00000
     31      15.5446      0.00000
     32      16.6581      0.00000

 k-point  12 :       0.3846    0.0769    0.0000
  band No.  band energies     occupation 
      1      -3.9246      2.00000
      2      -1.9765      2.00000
      3      -0.7263      2.00000
      4      -0.7172      2.00000
      5      -0.5019      2.00000
      6      -0.4391      2.00000
      7      -0.4254      2.00000
      8      -0.0729      2.00000
      9       0.2769      2.00000
     10       0.3088      2.00000
     11       0.6156      2.00000
     12       0.6982      2.00000
     13       0.7508      2.00000
     14       0.8186      2.00000
     15       1.1195      2.00000
     16       1.1324      2.00000
     17       1.1702      2.00000
     18       1.2327      2.00000
     19       1.2717      2.00000
     20       1.4649      2.00000
     21       1.6661      2.00000
     22       1.6673      2.00000
     23       6.9579      0.00000
     24       7.7324      0.00000
     25       9.6839      0.00000
     26      10.6022      0.00000
     27      10.7887      0.00000
     28      11.3533      0.00000
     29      12.2003      0.00000
     30      13.2542      0.00000
     31      17.3931      0.00000
     32      17.5143      0.00000

 k-point  13 :       0.4615    0.0769    0.0000
  band No.  band energies     occupation 
      1      -3.2737      2.00000
      2      -2.5911      2.00000
      3      -0.6245      2.00000
      4      -0.6208      2.00000
      5      -0.3618      2.00000
      6      -0.2432      2.00000
      7      -0.2191      2.00000
      8      -0.2160      2.00000
      9      -0.0041      2.00000
     10       0.0264      2.00000
     11       0.6004      2.00000
     12       0.6107      2.00000
     13       0.8443      2.00000
     14       0.9092      2.00000
     15       1.0043      2.00000
     16       1.0456      2.00000
     17       1.0504      2.00000
     18       1.0705      2.00000
     19       1.2979      2.00000
     20       1.3697      2.00000
     21       1.6665      2.00000
     22       1.6670      2.00000
     23       7.8052      0.00000
     24       8.6786      0.00000
     25       8.7143      0.00000
     26       9.7001      0.00000
     27      11.0099      0.00000
     28      11.5342      0.00000
     29      11.8737      0.00000
     30      12.5017      0.00000
     31      18.2430      0.00000
     32      18.4640      0.00000

 k-point  14 :       0.1538    0.1538    0.0000
  band No.  band energies     occupation 
      1      -5.0817      2.00000
      2      -1.1920      2.00000
      3      -1.1920      2.00000
      4      -1.0765      2.00000
      5      -0.7634      2.00000
      6      -0.7634      2.00000
      7      -0.7621      2.00000
      8       0.2251      2.00000
      9       0.4225      2.00000
     10       0.4336      2.00000
     11       0.9883      2.00000
     12       1.0936      2.00000
     13       1.0997      2.00000
     14       1.1360      2.00000
     15       1.1360      2.00000
     16       1.3967      2.00000
     17       1.4772      2.00000
     18       1.4772      2.00000
     19       1.5924      2.00000
     20       1.5924      2.00000
     21       1.6277      2.00000
     22       3.8975      0.00000
     23       3.8975      0.00000
     24       5.8801      0.00000
     25       9.9786      0.00000
     26      11.7540      0.00000
     27      11.9236      0.00000
     28      11.9236      0.00000
     29      14.5571      0.00000
     30      14.5571      0.00000
     31      14.9921      0.00000
     32      14.9921      0.00000

 k-point  15 :       0.2308    0.1538    0.0000
  band No.  band energies     occupation 
      1      -4.7519      2.00000
      2      -1.2482      2.00000
      3      -1.0443      2.00000
      4      -0.9534      2.00000
      5      -0.6877      2.00000
      6      -0.6820      2.00000
      7      -0.6776      2.00000
      8       0.1561      2.00000
      9       0.4775      2.00000
     10       0.4844      2.00000
[...]
     24       3.7630      0.00000
     25       8.2670      0.00000
     26       8.2670      0.00000
     27       8.2670      0.00000
     28      12.3899      0.00000
     29      17.2394      0.00000
     30      17.2394      0.00000
     31      17.2394      0.00000
     32      19.8387      0.00000

 k-point  76 :       0.3846    0.3077    0.3077
  band No.  band energies     occupation 
      1      -2.3684      2.00000
      2      -1.2871      2.00000
      3      -1.0518      2.00000
      4      -1.0518      2.00000
      5      -0.0283      2.00000
      6      -0.0283      2.00000
      7       0.0426      2.00000
      8       0.3201      2.00000
      9       0.3593      2.00000
     10       0.3971      2.00000
     11       0.4279      2.00000
     12       0.4279      2.00000
     13       0.4280      2.00000
     14       0.5849      2.00000
     15       0.6214      2.00000
     16       0.6214      2.00000
     17       1.3361      2.00000
     18       1.3839      2.00000
     19       1.5672      2.00000
     20       1.5672      2.00000
     21       1.5847      2.00000
     22       2.8297      2.00000
     23       4.0716      0.00000
     24       4.0716      0.00000
     25       7.4093      0.00000
     26       7.4093      0.00000
     27       8.8545      0.00000
     28      11.3303      0.00000
     29      17.7409      0.00000
     30      17.7409      0.00000
     31      19.3419      0.00000
     32      19.7438      0.00000

 k-point  77 :       0.4615    0.3077    0.3077
  band No.  band energies     occupation 
      1      -1.9715      2.00000
      2      -1.6022      2.00000
      3      -1.0621      2.00000
      4      -1.0621      2.00000
      5       0.0108      2.00000
      6       0.0108      2.00000
      7       0.1952      2.00000
      8       0.3165      2.00000
      9       0.3717      2.00000
     10       0.3733      2.00000
     11       0.4520      2.00000
     12       0.5024      2.00000
     13       0.5024      2.00000
     14       0.5053      2.00000
     15       0.5849      2.00000
     16       0.5849      2.00000
     17       1.4773      2.00000
     18       1.5388      2.00000
     19       1.5388      2.00000
     20       1.5456      2.00000
     21       1.5940      2.00000
     22       2.0962      2.00000
     23       4.3107      0.00000
     24       4.3107      0.00000
     25       6.8903      0.00000
     26       6.8903      0.00000
     27       9.5627      0.00000
     28      10.3881      0.00000
     29      18.3386      0.00000
     30      18.3386      0.00000
     31      19.0812      0.00000
     32      19.0812      0.00000

 k-point  78 :       0.3846    0.3846    0.3077
  band No.  band energies     occupation 
      1      -2.0711      2.00000
      2      -1.2674      2.00000
      3      -1.2674      2.00000
      4      -1.1311      2.00000
      5       0.0568      2.00000
      6       0.1122      2.00000
      7       0.1122      2.00000
      8       0.3775      2.00000
      9       0.3965      2.00000
     10       0.4966      2.00000
     11       0.4966      2.00000
     12       0.5240      2.00000
     13       0.5400      2.00000
     14       0.5453      2.00000
     15       0.5453      2.00000
     16       0.5793      2.00000
     17       1.3434      2.00000
     18       1.5164      2.00000
     19       1.5547      2.00000
     20       1.5654      2.00000
     21       1.5654      2.00000
     22       3.1201      1.99995
     23       3.1201      1.99995
     24       4.0876      0.00000
     25       6.8338      0.00000
     26       7.9192      0.00000
     27       7.9192      0.00000
     28      10.2864      0.00000
     29      18.2530      0.00000
     30      19.8028      0.00000
     31      19.8028      0.00000
     32      20.3712      0.00000

 k-point  79 :       0.4615    0.3846    0.3077
  band No.  band energies     occupation 
      1      -1.7783      2.00000
      2      -1.5088      2.00000
      3      -1.2382      2.00000
      4      -1.1936      2.00000
      5       0.1101      2.00000
      6       0.1290      2.00000
      7       0.2341      2.00000
      8       0.3230      2.00000
      9       0.4069      2.00000
     10       0.4486      2.00000
     11       0.4891      2.00000
     12       0.4962      2.00000
     13       0.6023      2.00000
     14       0.6310      2.00000
     15       0.6569      2.00000
     16       0.6749      2.00000
     17       1.4323      2.00000
     18       1.5232      2.00000
     19       1.5297      2.00000
     20       1.5322      2.00000
     21       1.7836      2.00000
     22       2.3297      2.00000
     23       3.4894      0.00000
     24       3.8652      0.00000
     25       6.7859      0.00000
     26       7.2001      0.00000
     27       8.5780      0.00000
     28       9.3686      0.00000
     29      18.8731      0.00000
     30      19.5727      0.00000
     31      20.4625      0.00000
     32      21.0152      0.00000

 k-point  80 :       0.4615    0.4615    0.3077
  band No.  band energies     occupation 
      1      -1.5919      2.00000
      2      -1.4134      2.00000
      3      -1.4134      2.00000
      4      -1.3101      2.00000
      5       0.1857      2.00000
      6       0.2272      2.00000
      7       0.2272      2.00000
      8       0.2945      2.00000
      9       0.3942      2.00000
     10       0.4252      2.00000
     11       0.4252      2.00000
     12       0.4408      2.00000
     13       0.7801      2.00000
     14       0.7801      2.00000
     15       0.7935      2.00000
     16       0.8052      2.00000
     17       1.4216      2.00000
     18       1.4839      2.00000
     19       1.4839      2.00000
     20       1.4952      2.00000
     21       2.1398      2.00000
     22       2.7216      2.00000
     23       2.7216      2.00000
     24       3.2635      0.00000
     25       7.1358      0.00000
     26       7.7591      0.00000
     27       7.7591      0.00000
     28       8.4895      0.00000
     29      19.5101      0.00000
     30      20.2438      0.00000
     31      20.2438      0.00000
     32      21.0067      0.00000

 k-point  81 :       0.3846    0.3846    0.3846
  band No.  band energies     occupation 
      1      -1.8743      2.00000
      2      -1.3138      2.00000
      3      -1.3138      2.00000
      4      -1.3138      2.00000
      5       0.1694      2.00000
      6       0.1694      2.00000
      7       0.1694      2.00000
      8       0.3628      2.00000
      9       0.3628      2.00000
     10       0.4529      2.00000
     11       0.4529      2.00000
     12       0.4529      2.00000
     13       0.7502      2.00000
     14       0.7502      2.00000
     15       0.7502      2.00000
     16       0.8964      2.00000
     17       1.4468      2.00000
     18       1.4468      2.00000
     19       1.5785      2.00000
     20       1.5785      2.00000
     21       1.5785      2.00000
     22       3.2364      0.00000
     23       3.2364      0.00000
     24       3.2364      0.00000
     25       7.1300      0.00000
     26       7.1300      0.00000
     27       7.1300      0.00000
     28       9.2703      0.00000
     29      20.3140      0.00000
     30      20.3140      0.00000
     31      20.3140      0.00000
     32      21.7958      0.00000

 k-point  82 :       0.4615    0.3846    0.3846
  band No.  band energies     occupation 
      1      -1.6820      2.00000
      2      -1.4963      2.00000
      3      -1.3385      2.00000
      4      -1.3385      2.00000
      5       0.1994      2.00000
      6       0.1994      2.00000
      7       0.2612      2.00000
      8       0.3254      2.00000
      9       0.3613      2.00000
     10       0.3920      2.00000
     11       0.4150      2.00000
     12       0.4150      2.00000
     13       0.9106      2.00000
     14       0.9106      2.00000
     15       0.9190      2.00000
     16       1.0445      2.00000
     17       1.5232      2.00000
     18       1.5604      2.00000
     19       1.5604      2.00000
     20       1.5680      2.00000
     21       1.7278      2.00000
     22       2.4087      2.00000
     23       3.3260      0.00000
     24       3.3260      0.00000
     25       6.6874      0.00000
     26       6.6874      0.00000
     27       7.6761      0.00000
     28       8.3972      0.00000
     29      20.8813      0.00000
     30      20.8813      0.00000
     31      21.6110      0.00000
     32      21.6110      0.00000

 k-point  83 :       0.4615    0.4615    0.3846
  band No.  band energies     occupation 
      1      -1.5798      2.00000
      2      -1.4667      2.00000
      3      -1.4667      2.00000
      4      -1.4148      2.00000
      5       0.2495      2.00000
      6       0.2698      2.00000
      7       0.2698      2.00000
      8       0.3152      2.00000
      9       0.3395      2.00000
     10       0.3612      2.00000
     11       0.3612      2.00000
     12       0.3688      2.00000
     13       1.1083      2.00000
     14       1.1313      2.00000
     15       1.1313      2.00000
     16       1.2696      2.00000
     17       1.5045      2.00000
     18       1.5498      2.00000
     19       1.5498      2.00000
     20       1.5503      2.00000
     21       2.0252      2.00000
     22       2.6428      2.00000
     23       2.6428      2.00000
     24       3.0014      2.00000
     25       6.6428      0.00000
     26       7.0072      0.00000
     27       7.0072      0.00000
     28       7.6000      0.00000
     29      21.4960      0.00000
     30      22.1492      0.00000
     31      22.1492      0.00000
     32      22.8612      0.00000

 k-point  84 :       0.4615    0.4615    0.4615
  band No.  band energies     occupation 
      1      -1.5490      2.00000
      2      -1.4947      2.00000
      3      -1.4947      2.00000
      4      -1.4947      2.00000
      5       0.2945      2.00000
      6       0.2945      2.00000
      7       0.2945      2.00000
      8       0.3164      2.00000
      9       0.3164      2.00000
     10       0.3264      2.00000
     11       0.3264      2.00000
     12       0.3264      2.00000
     13       1.3938      2.00000
     14       1.3938      2.00000
     15       1.3938      2.00000
     16       1.5554      2.00000
     17       1.5554      2.00000
     18       1.5710      2.00000
     19       1.5710      2.00000
     20       1.5710      2.00000
     21       2.0979      2.00000
     22       2.5615      2.00000
     23       2.5615      2.00000
     24       2.5615      2.00000
     25       6.5993      0.00000
     26       6.5993      0.00000
     27       6.5993      0.00000
     28       6.9484      0.00000
     29      23.3196      0.00000
     30      23.3196      0.00000
     31      23.3196      0.00000
     32      23.7282      0.00000


--------------------------------------------------------------------------------------------------------


 soft charge-density along one line, spin component           1
         0         1         2         3         4         5         6         7         8         9
 total charge-density along one line
 
 pseudopotential strength for first ion, spin component:           1
 -6.767   0.000  -0.000   0.000  -0.000  -0.108  -0.000   0.000
  0.000  -6.767  -0.000   0.000  -0.000  -0.000  -0.108   0.000
 -0.000  -0.000  -6.750  -0.000  -0.000   0.000   0.000  -0.116
  0.000   0.000  -0.000  -6.767   0.000  -0.000  -0.000   0.000
 -0.000  -0.000  -0.000   0.000  -6.750   0.000   0.000   0.000
 -0.108  -0.000   0.000  -0.000   0.000   1.617   0.000  -0.000
 -0.000  -0.108   0.000  -0.000   0.000   0.000   1.617  -0.000
  0.000   0.000  -0.116   0.000   0.000  -0.000  -0.000   1.620
 -0.000  -0.000   0.000  -0.108  -0.000   0.000   0.000  -0.000
  0.000   0.000   0.000  -0.000  -0.116  -0.000  -0.000  -0.000
 -0.000  -0.000  -0.000  -0.000  -0.000  -0.000  -0.000  -0.000
  0.000   0.000   0.000   0.000   0.000  -0.000  -0.000  -0.000
  0.000   0.000  -0.000   0.000  -0.000  -0.000  -0.000   0.000
  0.000   0.000   0.000   0.000   0.000   0.000  -0.000  -0.000
  0.000   0.000  -0.000   0.000   0.000  -0.000   0.000   0.000
 -0.000  -0.000   0.000  -0.000   0.000   0.000   0.000  -0.000
 -0.000  -0.000  -0.000  -0.000  -0.000   0.000   0.000   0.000
 -0.000  -0.000   0.000  -0.000  -0.000   0.000   0.000  -0.000
 total augmentation occupancy for first ion, spin component:           1
  1.859  -0.009  -0.012  -0.004  -0.011   0.001   0.006  -0.003  -0.000   0.011   0.031  -0.005   0.000  -0.000  -0.000   0.000
 -0.009   1.929  -0.001  -0.008  -0.005   0.006  -0.057   0.002   0.009  -0.002   0.048   0.006   0.000  -0.000  -0.000   0.000
 -0.012  -0.001   1.897   0.004  -0.014  -0.003   0.002  -0.030  -0.004   0.028  -0.010  -0.049  -0.000   0.000   0.000  -0.000
 -0.004  -0.008   0.004   1.918   0.002  -0.000   0.009  -0.003  -0.028   0.004   0.025   0.001   0.000  -0.000  -0.000   0.000
 -0.011  -0.005  -0.014   0.002   1.928   0.011  -0.002   0.028   0.004  -0.099   0.058   0.033  -0.000   0.000   0.000   0.000
  0.001   0.006  -0.003  -0.000   0.011   0.082  -0.003   0.018   0.000  -0.008   0.022   0.016   0.000   0.000  -0.000   0.000
  0.006  -0.057   0.002   0.009  -0.002  -0.003   0.065  -0.004  -0.005   0.008  -0.015   0.010   0.000  -0.000   0.000   0.000
 -0.003   0.002  -0.030  -0.003   0.028   0.018  -0.004   0.068   0.000  -0.004   0.106  -0.013  -0.000  -0.000   0.000  -0.000
 -0.000   0.009  -0.004  -0.028   0.004   0.000  -0.005   0.000   0.051  -0.009   0.001   0.008   0.000   0.000  -0.000   0.000
  0.011  -0.002   0.028   0.004  -0.099  -0.008   0.008  -0.004  -0.009   0.055  -0.076   0.015   0.000  -0.000   0.000   0.000
  0.031   0.048  -0.010   0.025   0.058   0.022  -0.015   0.106   0.001  -0.076   1.156  -0.322   0.000   0.000  -0.000  -0.000
 -0.005   0.006  -0.049   0.001   0.033   0.016   0.010  -0.013   0.008   0.015  -0.322   0.131   0.000   0.000   0.000   0.000
  0.000   0.000  -0.000   0.000  -0.000   0.000   0.000  -0.000   0.000   0.000   0.000   0.000   0.156   0.017  -0.016  -0.011
 -0.000  -0.000   0.000  -0.000   0.000   0.000  -0.000  -0.000   0.000  -0.000   0.000   0.000   0.017   0.109  -0.002  -0.001
 -0.000  -0.000   0.000  -0.000   0.000  -0.000   0.000   0.000  -0.000   0.000  -0.000   0.000  -0.016  -0.002   0.238  -0.001
  0.000   0.000  -0.000   0.000   0.000   0.000   0.000  -0.000   0.000   0.000  -0.000   0.000  -0.011  -0.001  -0.001   0.001
 -0.000  -0.000  -0.000   0.000   0.000   0.000  -0.000  -0.000   0.000  -0.000   0.000  -0.000  -0.001  -0.007  -0.001   0.000
 -0.000  -0.000   0.000  -0.000   0.000  -0.000  -0.000  -0.000  -0.000  -0.000  -0.000  -0.000  -0.001  -0.001  -0.017   0.000


------------------------ aborting loop because EDIFF is reached ----------------------------------------




--------------------------------------------------------------------------------------------------------


    CHARGE:  VPU time    0.08: CPU time    0.08
    FORLOC:  VPU time    0.00: CPU time    0.00
    FORNL :  VPU time    0.26: CPU time    0.26
    STRESS:  VPU time    0.73: CPU time    0.73
    FORCOR:  VPU time    0.01: CPU time    0.01
    FORHAR:  VPU time    0.00: CPU time    0.00
    MIXING:  VPU time    0.00: CPU time    0.00


--------------------------------------------------------------------------------------------------------



  FREE ENERGIE OF THE ION-ELECTRON SYSTEM (eV)
  ---------------------------------------------------
  free  energy   TOTEN  =       -14.810890 eV

  energy  without entropy=      -14.810787  energy(sigma->0) =      -14.810838
 

  FORCE on cell =-STRESS in cart. coord.  units (eV/reduce length):
  Direction    X        Y        Z        XY       YZ       ZX
  --------------------------------------------------------------------------------------
  Alpha Z    400.59    400.59    400.59
  Ewald    -1435.83  -1435.83  -1435.83      0.00      0.00      0.00
  Hartree    426.32    426.32    426.32     -0.00     -0.00     -0.00
  E(xc)     -250.11   -250.11   -250.11      0.00     -0.00      0.00
  Local      467.13    467.13    467.13      0.00      0.00     -0.00
  n-local   -144.62   -150.33   -151.51      0.19      1.80      0.67
  augment    225.80    225.80    225.80     -0.00     -0.00     -0.00
  Kinetic    320.21    311.82    306.09     -3.33      0.11     -1.31
  -------------------------------------------------------------------------------------
  Total       -2.21     -2.21     -2.21     -0.00     -0.00     -0.00
  in kB      -69.43    -69.43    -69.43     -0.00     -0.00     -0.00
  external pressure =      -69.43 kB  Pullay stress =        0.00 kB


 VOLUME and BASIS-vectors are now :
 -----------------------------------------------------------------------------
  energy-cutoff  :      500.00
  volume of cell :       51.03
      direct lattice vectors                 reciprocal lattice vectors
     3.709144128  0.000000000  0.000000000     0.269603975  0.000000000  0.000000000
     0.000000000  3.709144128  0.000000000     0.000000000  0.269603975  0.000000000
     0.000000000  0.000000000  3.709144128     0.000000000  0.000000000  0.269603975

  length of vectors
     3.709144128  3.709144128  3.709144128     0.269603975  0.269603975  0.269603975


 FORCES acting on ions
    electron-ion (+dipol)            ewald-force                    non-local-force                 convergence-correction
 -----------------------------------------------------------------------------------------------
   -.573E-13 -.421E-13 -.461E-13   0.267E-13 0.243E-14 -.966E-14   0.226E-25 0.565E-26 -.123E-25   0.173E-13 -.171E-14 0.151E-13
   0.502E-12 0.362E-11 0.226E-11   0.322E-14 0.229E-13 -.966E-14   -.969E-26 -.258E-25 0.129E-25   0.365E-13 0.618E-14 0.151E-13
   0.505E-12 -.447E-13 0.762E-11   0.841E-14 -.219E-13 0.962E-14   0.576E-26 0.323E-26 0.368E-25   0.506E-13 -.598E-14 -.968E-13
   -.576E-13 0.508E-12 0.503E-12   -.365E-13 -.149E-14 0.962E-14   0.226E-25 -.129E-25 0.113E-25   0.259E-13 0.893E-14 -.954E-13
 -----------------------------------------------------------------------------------------------
   0.892E-12 0.404E-11 0.103E-10   0.186E-14 0.189E-14 -.861E-16   0.413E-25 -.299E-25 0.487E-25   0.130E-12 0.742E-14 -.162E-12
 
 
 POSITION                                       TOTAL-FORCE (eV/Angst)
 -----------------------------------------------------------------------------------
      0.00000      0.00000      0.00000        -0.000000      0.000000      0.000000
      1.85457      1.85457      0.00000         0.000000     -0.000000      0.000000
      1.85457      0.00000      1.85457         0.000000      0.000000     -0.000000
      0.00000      1.85457      1.85457         0.000000     -0.000000      0.000000
 -----------------------------------------------------------------------------------
    total drift:                                0.000000      0.000000      0.000000


--------------------------------------------------------------------------------------------------------



 mean value of Nose-termostat <S>:     1.000 mean value of <T> :     0.000
 mean temperature <T/S>/<1/S>  :     0.000

     LOOP+:  VPU time   26.68: CPU time   26.74
  
  
 General timing and accounting informations for this job:
 ========================================================
  
                  Total CPU time used (sec):       27.623
                            User time (sec):       18.836
                          System time (sec):        8.787
                         Elapsed time (sec):       27.685
  
                   Maximum memory used (kb):      332928.
                   Average memory used (kb):           0.
  
                          Minor page faults:        44752
                          Major page faults:            0
                 Voluntary context switches:          887
