 running on    4 nodes
 distr:  one band on    1 nodes,    4 groups
 vasp.4.6.28 25Jul05 complex 
 POSCAR found :  1 types and   32 ions

 ----------------------------------------------------------------------------- 
|                                                                             |
|  ADVICE TO THIS USER RUNNING 'VASP/VAMP'   (HEAR YOUR MASTER'S VOICE ...):  |
|                                                                             |
|      You have a (more or less) 'large supercell' and for larger cells       |
|      it might be more efficient to use real space projection operators      |
|      So try LREAL= Auto  in the INCAR   file.                               |
|      Mind: If you want to do an extremely accurate calculations keep the    |
|      reciprocal projection scheme          (i.e. LREAL=.FALSE.)             |
|                                                                             |
 ----------------------------------------------------------------------------- 

 LDA part: xc-table for Pade appr. of Perdew
 POSCAR, INCAR and KPOINTS ok, starting setup
 WARNING: wrap around errors must be expected
 FFT: planning ...           4
 reading WAVECAR
 entering main loop
       N       E                     dE             d eps       ncg     rms          rms(c)
DAV:   1     0.186325379097E+04    0.18633E+04   -0.10659E+05   424   0.844E+02
DAV:   2    -0.555549434674E+01   -0.18688E+04   -0.17605E+04   444   0.314E+02
DAV:   3    -0.104411793758E+03   -0.98856E+02   -0.93666E+02   480   0.679E+01
DAV:   4    -0.106483233942E+03   -0.20714E+01   -0.20554E+01   456   0.986E+00
DAV:   5    -0.106527734270E+03   -0.44500E-01   -0.44490E-01   452   0.129E+00    0.145E+01
DAV:   6    -0.100075452609E+03    0.64523E+01   -0.19971E+01   444   0.137E+01    0.357E+00
DAV:   7    -0.998182135356E+02    0.25724E+00   -0.86479E-01   460   0.235E+00    0.177E+00
DAV:   8    -0.997596818195E+02    0.58532E-01   -0.36617E-02   448   0.543E-01    0.128E-01
DAV:   9    -0.997596783672E+02    0.34524E-05   -0.48921E-03   448   0.204E-01    0.805E-02
DAV:  10    -0.997596563270E+02    0.22040E-04   -0.53765E-04   440   0.610E-02    0.928E-03
DAV:  11    -0.997596620376E+02   -0.57105E-05   -0.16787E-05   276   0.110E-02
   1 F= -.99759662E+02 E0= -.99702039E+02  d E =-.997597E+02
 curvature:   0.00 expect dE= 0.000E+00 dE for cont linesearch  0.000E+00
 trial: gam= 0.00000 g(F)=  0.909E-58 g(S)=  0.000E+00 ort = 0.000E+00 (trialstep = 0.100E+01)
 search vector abs. value=  0.100E-09
 reached required accuracy - stopping structural energy minimisation
 writing wavefunctions

 ----------------------------------------------------------------------------- 
|                                                                             |
|           W    W    AA    RRRRR   N    N  II  N    N   GGGG   !!!           |
|           W    W   A  A   R    R  NN   N  II  NN   N  G    G  !!!           |
|           W    W  A    A  R    R  N N  N  II  N N  N  G       !!!           |
|           W WW W  AAAAAA  RRRRR   N  N N  II  N  N N  G  GGG   !            |
|           WW  WW  A    A  R   R   N   NN  II  N   NN  G    G                |
|           W    W  A    A  R    R  N    N  II  N    N   GGGG   !!!           |
|                                                                             |
|      The partial DOS and the PROCAR file are not evaluated for NPAR/=1      |
|      please rerun with NPAR=1                                               |
|                                                                             |
 ----------------------------------------------------------------------------- 

