   4   4   0   0
  0.2289288E+02  0.4507338E-09  0.4507338E-09  0.4507338E-09  0.5000000E-15
  1.000000000000000E-004
  CAR 
 unknown system                          
     18.03778620     -5.69008827  301      2.53039266      1.00000000
     -5.690  0.0000E+00  0.0000E+00
     -5.611  0.0000E+00  0.0000E+00
     -5.532  0.0000E+00  0.0000E+00
     -5.453  0.0000E+00  0.0000E+00
     -5.374  0.0000E+00  0.0000E+00
     -5.295  0.0000E+00  0.0000E+00
     -5.216  0.0000E+00  0.0000E+00
     -5.136  0.0000E+00  0.0000E+00
     -5.057  0.0000E+00  0.0000E+00
     -4.978  0.0000E+00  0.0000E+00
     -4.899  0.0000E+00  0.0000E+00
     -4.820  0.0000E+00  0.0000E+00
     -4.741  0.0000E+00  0.0000E+00
     -4.662  0.2976E-15  0.2354E-16
     -4.583  0.1873E-01  0.1481E-02
     -4.504  0.1167E+00  0.1088E-01
     -4.425  0.1829E+00  0.2548E-01
     -4.346  0.2159E+00  0.4305E-01
     -4.266  0.2498E+00  0.6368E-01
     -4.187  0.2935E+00  0.8829E-01
     -4.108  0.3139E+00  0.1150E+00
     -4.029  0.3479E+00  0.1440E+00
     -3.950  0.3745E+00  0.1748E+00
     -3.871  0.4337E+00  0.2108E+00
     -3.792  0.4322E+00  0.2465E+00
     -3.713  0.5133E+00  0.2879E+00
     -3.634  0.4944E+00  0.3282E+00
     -3.555  0.5674E+00  0.3742E+00
     -3.475  0.5792E+00  0.4216E+00
     -3.396  0.6514E+00  0.4743E+00
     -3.317  0.6250E+00  0.5261E+00
     -3.238  0.6910E+00  0.5837E+00
     -3.159  0.7467E+00  0.6448E+00
     -3.080  0.8201E+00  0.7129E+00
     -3.001  0.8022E+00  0.7785E+00
     -2.922  0.1042E+01  0.8624E+00
     -2.843  0.1020E+01  0.9446E+00
     -2.764  0.1102E+01  0.1037E+01
     -2.685  0.1377E+01  0.1148E+01
     -2.605  0.1817E+01  0.1295E+01
     -2.526  0.2856E+01  0.1528E+01
     -2.447  0.3397E+01  0.1807E+01
     -2.368  0.3564E+01  0.2098E+01
     -2.289  0.3986E+01  0.2422E+01
     -2.210  0.5663E+01  0.2880E+01
     -2.131  0.7062E+01  0.3459E+01
     -2.052  0.9362E+01  0.4219E+01
     -1.973  0.1119E+02  0.5130E+01
     -1.894  0.1123E+02  0.6048E+01
     -1.815  0.1026E+02  0.6886E+01
     -1.735  0.1000E+02  0.7705E+01
     -1.656  0.9302E+01  0.8468E+01
     -1.577  0.8945E+01  0.9197E+01
     -1.498  0.7985E+01  0.9850E+01
     -1.419  0.6856E+01  0.1041E+02
     -1.340  0.9335E+01  0.1116E+02
     -1.261  0.1100E+02  0.1206E+02
     -1.182  0.1375E+02  0.1318E+02
     -1.103  0.1386E+02  0.1431E+02
     -1.024  0.1263E+02  0.1534E+02
     -0.945  0.1258E+02  0.1637E+02
     -0.865  0.1419E+02  0.1753E+02
     -0.786  0.1603E+02  0.1883E+02
     -0.707  0.2191E+02  0.2061E+02
     -0.628  0.1863E+02  0.2214E+02
     -0.549  0.1372E+02  0.2327E+02
     -0.470  0.1073E+02  0.2415E+02
     -0.391  0.1093E+02  0.2504E+02
     -0.312  0.1080E+02  0.2592E+02
     -0.233  0.1216E+02  0.2691E+02
     -0.154  0.1367E+02  0.2802E+02
     -0.074  0.1357E+02  0.2913E+02
      0.005  0.1533E+02  0.3038E+02
      0.084  0.1289E+02  0.3143E+02
      0.163  0.1195E+02  0.3240E+02
      0.242  0.1125E+02  0.3332E+02
      0.321  0.1106E+02  0.3422E+02
      0.400  0.1156E+02  0.3516E+02
      0.479  0.1224E+02  0.3616E+02
      0.558  0.1350E+02  0.3726E+02
      0.637  0.1879E+02  0.3878E+02
      0.716  0.1964E+02  0.4039E+02
      0.796  0.1047E+02  0.4125E+02
      0.875  0.6743E+01  0.4181E+02
      0.954  0.1624E+01  0.4194E+02
      1.033  0.1097E+01  0.4203E+02
      1.112  0.1447E+01  0.4215E+02
      1.191  0.1400E+01  0.4226E+02
      1.270  0.1173E+01  0.4236E+02
      1.349  0.1361E+01  0.4247E+02
      1.428  0.1433E+01  0.4259E+02
      1.507  0.1099E+01  0.4268E+02
      1.586  0.1380E+01  0.4279E+02
      1.666  0.1203E+01  0.4288E+02
      1.745  0.1295E+01  0.4299E+02
      1.824  0.1200E+01  0.4309E+02
      1.903  0.1217E+01  0.4319E+02
      1.982  0.1281E+01  0.4330E+02
      2.061  0.1221E+01  0.4339E+02
      2.140  0.1342E+01  0.4350E+02
      2.219  0.1188E+01  0.4360E+02
      2.298  0.1294E+01  0.4371E+02
      2.377  0.1182E+01  0.4380E+02
      2.456  0.1298E+01  0.4391E+02
      2.536  0.1212E+01  0.4401E+02
      2.615  0.1342E+01  0.4412E+02
      2.694  0.1224E+01  0.4422E+02
      2.773  0.1333E+01  0.4433E+02
      2.852  0.1316E+01  0.4444E+02
      2.931  0.1338E+01  0.4455E+02
      3.010  0.1359E+01  0.4466E+02
      3.089  0.1284E+01  0.4476E+02
      3.168  0.1291E+01  0.4487E+02
      3.247  0.1403E+01  0.4498E+02
      3.327  0.1219E+01  0.4508E+02
      3.406  0.1478E+01  0.4520E+02
      3.485  0.1165E+01  0.4530E+02
      3.564  0.1327E+01  0.4541E+02
      3.643  0.1326E+01  0.4552E+02
      3.722  0.1341E+01  0.4562E+02
      3.801  0.1283E+01  0.4573E+02
      3.880  0.1393E+01  0.4584E+02
      3.959  0.1218E+01  0.4594E+02
      4.038  0.1414E+01  0.4605E+02
      4.117  0.1383E+01  0.4617E+02
      4.197  0.1299E+01  0.4627E+02
      4.276  0.1365E+01  0.4638E+02
      4.355  0.1736E+01  0.4652E+02
      4.434  0.2016E+01  0.4669E+02
      4.513  0.1968E+01  0.4685E+02
      4.592  0.1763E+01  0.4699E+02
      4.671  0.1779E+01  0.4713E+02
      4.750  0.1597E+01  0.4726E+02
      4.829  0.1698E+01  0.4740E+02
      4.908  0.1504E+01  0.4753E+02
      4.987  0.1498E+01  0.4765E+02
      5.067  0.1401E+01  0.4777E+02
      5.146  0.1366E+01  0.4788E+02
      5.225  0.1496E+01  0.4800E+02
      5.304  0.1289E+01  0.4810E+02
      5.383  0.1295E+01  0.4821E+02
      5.462  0.1249E+01  0.4831E+02
      5.541  0.1171E+01  0.4841E+02
      5.620  0.1245E+01  0.4851E+02
      5.699  0.1128E+01  0.4860E+02
      5.778  0.1030E+01  0.4868E+02
      5.857  0.1028E+01  0.4877E+02
      5.937  0.9328E+00  0.4884E+02
      6.016  0.9735E+00  0.4892E+02
      6.095  0.9369E+00  0.4900E+02
      6.174  0.9890E+00  0.4908E+02
      6.253  0.1235E+01  0.4918E+02
      6.332  0.1600E+01  0.4931E+02
      6.411  0.1418E+01  0.4942E+02
      6.490  0.1313E+01  0.4953E+02
      6.569  0.1530E+01  0.4965E+02
      6.648  0.1712E+01  0.4979E+02
      6.727  0.1991E+01  0.4995E+02
      6.807  0.1683E+01  0.5009E+02
      6.886  0.1525E+01  0.5021E+02
      6.965  0.1451E+01  0.5033E+02
      7.044  0.1749E+01  0.5047E+02
      7.123  0.1960E+01  0.5063E+02
      7.202  0.1670E+01  0.5077E+02
      7.281  0.1403E+01  0.5088E+02
      7.360  0.1577E+01  0.5101E+02
      7.439  0.1310E+01  0.5112E+02
      7.518  0.1896E+01  0.5127E+02
      7.598  0.1711E+01  0.5141E+02
      7.677  0.1277E+01  0.5152E+02
      7.756  0.1388E+01  0.5163E+02
      7.835  0.1411E+01  0.5175E+02
      7.914  0.1267E+01  0.5186E+02
      7.993  0.1376E+01  0.5197E+02
      8.072  0.1405E+01  0.5208E+02
      8.151  0.1160E+01  0.5218E+02
      8.230  0.1181E+01  0.5227E+02
      8.309  0.1591E+01  0.5240E+02
      8.388  0.1271E+01  0.5251E+02
      8.468  0.1361E+01  0.5262E+02
      8.547  0.1684E+01  0.5275E+02
      8.626  0.1754E+01  0.5290E+02
      8.705  0.1111E+01  0.5299E+02
      8.784  0.1489E+01  0.5311E+02
      8.863  0.1628E+01  0.5324E+02
      8.942  0.1597E+01  0.5337E+02
      9.021  0.1554E+01  0.5350E+02
      9.100  0.1463E+01  0.5362E+02
      9.179  0.1344E+01  0.5373E+02
      9.258  0.1866E+01  0.5387E+02
      9.338  0.1451E+01  0.5399E+02
      9.417  0.1574E+01  0.5412E+02
      9.496  0.1553E+01  0.5425E+02
      9.575  0.1196E+01  0.5435E+02
      9.654  0.1943E+01  0.5451E+02
      9.733  0.1817E+01  0.5465E+02
      9.812  0.1154E+01  0.5475E+02
      9.891  0.1543E+01  0.5487E+02
      9.970  0.1603E+01  0.5500E+02
     10.049  0.1633E+01  0.5514E+02
     10.128  0.1565E+01  0.5527E+02
     10.208  0.1647E+01  0.5540E+02
     10.287  0.1477E+01  0.5553E+02
     10.366  0.1500E+01  0.5565E+02
     10.445  0.1489E+01  0.5577E+02
     10.524  0.1951E+01  0.5593E+02
     10.603  0.1725E+01  0.5607E+02
     10.682  0.1754E+01  0.5621E+02
     10.761  0.1611E+01  0.5634E+02
     10.840  0.2087E+01  0.5651E+02
     10.919  0.1644E+01  0.5665E+02
     10.999  0.2069E+01  0.5681E+02
     11.078  0.1867E+01  0.5696E+02
     11.157  0.1896E+01  0.5712E+02
     11.236  0.1973E+01  0.5728E+02
     11.315  0.1879E+01  0.5743E+02
     11.394  0.2304E+01  0.5762E+02
     11.473  0.2065E+01  0.5779E+02
     11.552  0.1810E+01  0.5794E+02
     11.631  0.2357E+01  0.5813E+02
     11.710  0.2042E+01  0.5830E+02
     11.789  0.2397E+01  0.5850E+02
     11.869  0.2495E+01  0.5870E+02
     11.948  0.2051E+01  0.5887E+02
     12.027  0.2288E+01  0.5905E+02
     12.106  0.2197E+01  0.5923E+02
     12.185  0.2017E+01  0.5940E+02
     12.264  0.2021E+01  0.5956E+02
     12.343  0.2578E+01  0.5977E+02
     12.422  0.1894E+01  0.5993E+02
     12.501  0.2049E+01  0.6009E+02
     12.580  0.1924E+01  0.6025E+02
     12.659  0.1993E+01  0.6041E+02
     12.739  0.2299E+01  0.6060E+02
     12.818  0.2099E+01  0.6077E+02
     12.897  0.1724E+01  0.6091E+02
     12.976  0.1998E+01  0.6107E+02
     13.055  0.2088E+01  0.6125E+02
     13.134  0.1760E+01  0.6139E+02
     13.213  0.1667E+01  0.6153E+02
     13.292  0.1957E+01  0.6169E+02
     13.371  0.1606E+01  0.6182E+02
     13.450  0.1550E+01  0.6194E+02
     13.529  0.1493E+01  0.6207E+02
     13.609  0.9902E+00  0.6215E+02
     13.688  0.1609E+01  0.6228E+02
     13.767  0.8790E+00  0.6235E+02
     13.846  0.1191E+01  0.6245E+02
     13.925  0.1200E+01  0.6254E+02
     14.004  0.8865E+00  0.6262E+02
     14.083  0.9271E+00  0.6269E+02
     14.162  0.1134E+01  0.6278E+02
     14.241  0.7681E+00  0.6284E+02
     14.320  0.8695E+00  0.6291E+02
     14.400  0.9181E+00  0.6299E+02
     14.479  0.6436E+00  0.6304E+02
     14.558  0.7769E+00  0.6310E+02
     14.637  0.7151E+00  0.6316E+02
     14.716  0.4565E+00  0.6320E+02
     14.795  0.7710E+00  0.6326E+02
     14.874  0.6056E+00  0.6331E+02
     14.953  0.4379E+00  0.6335E+02
     15.032  0.6359E+00  0.6340E+02
     15.111  0.5104E+00  0.6344E+02
     15.190  0.3492E+00  0.6347E+02
     15.270  0.5972E+00  0.6352E+02
     15.349  0.4042E+00  0.6355E+02
     15.428  0.2540E+00  0.6357E+02
     15.507  0.6025E+00  0.6362E+02
     15.586  0.3187E+00  0.6365E+02
     15.665  0.3689E+00  0.6367E+02
     15.744  0.4008E+00  0.6371E+02
     15.823  0.1541E+00  0.6372E+02
     15.902  0.4869E+00  0.6376E+02
     15.981  0.2277E+00  0.6378E+02
     16.060  0.2145E+00  0.6380E+02
     16.140  0.3285E+00  0.6382E+02
     16.219  0.1795E+00  0.6384E+02
     16.298  0.3508E+00  0.6387E+02
     16.377  0.1867E+00  0.6388E+02
     16.456  0.1934E+00  0.6390E+02
     16.535  0.1890E+00  0.6391E+02
     16.614  0.2576E+00  0.6393E+02
     16.693  0.1962E+00  0.6395E+02
     16.772  0.2639E+00  0.6397E+02
     16.851  0.3027E+00  0.6399E+02
     16.930  0.5264E-01  0.6400E+02
     17.010  0.1658E-01  0.6400E+02
     17.089  0.0000E+00  0.6400E+02
     17.168  0.0000E+00  0.6400E+02
     17.247  0.0000E+00  0.6400E+02
     17.326  0.0000E+00  0.6400E+02
     17.405  0.0000E+00  0.6400E+02
     17.484  0.0000E+00  0.6400E+02
     17.563  0.0000E+00  0.6400E+02
     17.642  0.0000E+00  0.6400E+02
     17.721  0.0000E+00  0.6400E+02
     17.801  0.0000E+00  0.6400E+02
     17.880  0.0000E+00  0.6400E+02
     17.959  0.0000E+00  0.6400E+02
     18.038  0.0000E+00  0.6400E+02
