    4    4    1    1
  0.2289288E+02  0.4507338E-09  0.4507338E-09  0.4507338E-09  0.5000000E-15
  1.000000000000000E-004
  CAR 
 unknown system                          
   44 1330   32
 
  0.0000000E+00  0.0000000E+00  0.0000000E+00  0.2143347E-04
   1       -4.6115
   2       -2.3312
   3       -2.3312
   4       -2.3312
   5       -2.1582
   6       -2.1582
   7       -2.1582
   8       -0.9224
   9       -0.9224
  10       -0.9224
  11       -0.0310
  12       -0.0310
  13        0.6477
  14        0.6477
  15        0.6477
  16        0.8658
  17        0.8658
  18        0.8658
  19        0.8658
  20        0.8658
  21        0.8658
  22        4.2955
  23        4.2955
  24        4.2955
  25        6.3206
  26        6.3206
  27        6.3206
  28       11.7273
  29       11.7273
  30       11.7273
  31       11.7273
  32       11.7273
 
  0.2777778E-01  0.0000000E+00  0.0000000E+00  0.1286008E-03
   1       -4.6046
   2       -2.3292
   3       -2.3271
   4       -2.3271
   5       -2.1561
   6       -2.1550
   7       -2.1550
   8       -0.9250
   9       -0.9198
  10       -0.9198
  11       -0.0337
  12       -0.0298
  13        0.6439
  14        0.6439
  15        0.6463
  16        0.8512
  17        0.8512
  18        0.8610
  19        0.8610
  20        0.8658
  21        0.8658
  22        4.1902
  23        4.3157
  24        4.3157
  25        6.3171
  26        6.3171
  27        6.4384
  28       11.7089
  29       11.7089
  30       11.7094
  31       11.7101
  32       11.7399
 
  0.5555556E-01  0.0000000E+00  0.0000000E+00  0.1286008E-03
   1       -4.5837
   2       -2.3234
   3       -2.3150
   4       -2.3150
   5       -2.1499
   6       -2.1454
   7       -2.1454
   8       -0.9329
   9       -0.9122
  10       -0.9122
  11       -0.0420
  12       -0.0261
  13        0.6325
  14        0.6325
  15        0.6422
  16        0.8085
  17        0.8085
  18        0.8468
  19        0.8468
  20        0.8658
  21        0.8658
  22        3.9268
  23        4.3755
  24        4.3755
  25        6.3069
  26        6.3069
  27        6.7393
  28       11.6544
  29       11.6544
  30       11.6577
  31       11.6577
  32       11.7777
 
  0.8333333E-01  0.0000000E+00  0.0000000E+00  0.1286008E-03
   1       -4.5489
   2       -2.3140
   3       -2.2949
   4       -2.2949
   5       -2.1394
   6       -2.1293
   7       -2.1293
   8       -0.9461
   9       -0.8994
  10       -0.8994
  11       -0.0556
  12       -0.0200
  13        0.6137
  14        0.6137
  15        0.6354
  16        0.7407
  17        0.7407
  18        0.8235
  19        0.8235
  20        0.8659
  21        0.8659
  22        3.5854
  23        4.4719
  24        4.4719
  25        6.2902
  26        6.2902
  27        7.1435
  28       11.5654
  29       11.5654
  30       11.5776
  31       11.5776
  32       11.8403
 
  0.1111111E+00  0.0000000E+00  0.0000000E+00  0.1286008E-03
   1       -4.5004
   2       -2.3012
   3       -2.2671
   4       -2.2671
   5       -2.1249
   6       -2.1068
   7       -2.1068
   8       -0.9643
   9       -0.8817
  10       -0.8817
  11       -0.0743
  12       -0.0116
  13        0.5875
  14        0.5875
  15        0.6260
  16        0.6516
  17        0.6516
  18        0.7914
  19        0.7914
  20        0.8659
  21        0.8659
  22        3.2128
  23        4.6007
  24        4.6007
  25        6.2674
  26        6.2674
  27        7.6042
  28       11.4445
  29       11.4445
  30       11.4762
  31       11.4762
  32       11.9273
 
  0.1388889E+00  0.0000000E+00  0.0000000E+00  0.1286008E-03
   1       -4.4383
   2       -2.2858
   3       -2.2319
   4       -2.2319
   5       -2.1064
   6       -2.0779
   7       -2.0779
   8       -0.9874
   9       -0.8590
  10       -0.8590
  11       -0.0979
  12       -0.0009
  13        0.5457
  14        0.5457
  15        0.5543
  16        0.5543
  17        0.6140
  18        0.7510
  19        0.7510
  20        0.8659
  21        0.8659
  22        2.8312
  23        4.7576
  24        4.7576
  25        6.2393
  26        6.2393
  27        8.0997
  28       11.2947
  29       11.2947
  30       11.3611
  31       11.3611
  32       12.0381
 
  0.1666667E+00  0.0000000E+00  0.0000000E+00  0.1286008E-03
   1       -4.3628
   2       -2.2685
   3       -2.1899
   4       -2.1899
   5       -2.0839
   6       -2.0426
   7       -2.0426
   8       -1.0151
   9       -0.8314
  10       -0.8314
  11       -0.1260
  12        0.0121
  13        0.4272
  14        0.4272
  15        0.5143
  16        0.5143
  17        0.5996
  18        0.7032
  19        0.7032
  20        0.8660
  21        0.8660
  22        2.4515
  23        4.9381
  24        4.9381
  25        6.2068
  26        6.2068
  27        8.6196
  28       11.1195
  29       11.1195
  30       11.2391
  31       11.2391
  32       12.1717
 
  0.1944444E+00  0.0000000E+00  0.0000000E+00  0.1286008E-03
   1       -4.2743
   2       -2.2502
   3       -2.1416
   4       -2.1416
   5       -2.0577
   6       -2.0008
   7       -2.0008
   8       -1.0472
   9       -0.7989
  10       -0.7989
  11       -0.1580
  12        0.0273
  13        0.2997
  14        0.2997
  15        0.4681
  16        0.4681
  17        0.5829
  18        0.6485
  19        0.6485
  20        0.8661
  21        0.8661
  22        2.0800
  23        5.1386
  24        5.1386
  25        6.1708
  26        6.1708
  27        9.1582
  28       10.9221
  29       10.9221
  30       11.1160
  31       11.1160
  32       12.3273
 
  0.2222222E+00  0.0000000E+00  0.0000000E+00  0.1286008E-03
   1       -4.1730
   2       -2.2325
   3       -2.0878
   4       -2.0878
   5       -2.0278
   6       -1.9528
   7       -1.9528
   8       -1.0833
   9       -0.7616
  10       -0.7616
  11       -0.1934
  12        0.0445
  13        0.1663
  14        0.1663
  15        0.4163
  16        0.4163
  17        0.5641
  18        0.5879
  19        0.5879
  20        0.8662
  21        0.8662
  22        1.7211
  23        5.3556
  24        5.3556
  25        6.1324
  26        6.1324
  27        9.7122
  28       10.7057
  29       10.7057
  30       10.9962
  31       10.9962
  32       12.5039
 
  0.2500000E+00  0.0000000E+00  0.0000000E+00  0.1286008E-03
   1       -4.0595
   2       -2.2170
   3       -2.0295
   4       -2.0295
   5       -1.9944
   6       -1.8984
   7       -1.8984
   8       -1.1230
   9       -0.7197
  10       -0.7197
  11       -0.2313
  12        0.0295
  13        0.0295
  14        0.0637
  15        0.3597
  16        0.3597
  17        0.5223
  18        0.5223
  19        0.5432
  20        0.8662
  21        0.8662
  22        1.3780
  23        5.5867
  24        5.5867
  25        6.0929
  26        6.0929
  27       10.2796
  28       10.4733
  29       10.4733
  30       10.8831
  31       10.8831
  32       12.7003
 
  0.2777778E+00  0.0000000E+00  0.0000000E+00  0.1286008E-03
   1       -3.9343
   2       -2.2061
   3       -1.9678
   4       -1.9678
   5       -1.9578
   6       -1.8377
   7       -1.8377
   8       -1.1660
   9       -0.6733
  10       -0.6733
  11       -0.2708
  12       -0.1089
  13       -0.1089
  14        0.0846
  15        0.2995
  16        0.2995
  17        0.4523
  18        0.4523
  19        0.5205
  20        0.8663
  21        0.8663
  22        1.0540
  23        5.8294
  24        5.8294
  25        6.0534
  26        6.0534
  27       10.2276
  28       10.2276
  29       10.7789
  30       10.7789
  31       10.8586
  32       12.9155
 
  0.3055556E+00  0.0000000E+00  0.0000000E+00  0.1286008E-03
   1       -3.7984
   2       -2.2027
   3       -1.9180
   4       -1.9043
   5       -1.9043
   6       -1.7707
   7       -1.7707
   8       -1.2119
   9       -0.6226
  10       -0.6226
  11       -0.3108
  12       -0.2471
  13       -0.2471
  14        0.1073
  15        0.2371
  16        0.2371
  17        0.3790
  18        0.3790
  19        0.4962
  20        0.7526
  21        0.8664
  22        0.8664
  23        6.0153
  24        6.0153
  25        6.0820
  26        6.0820
  27        9.9709
  28        9.9709
  29       10.6853
  30       10.6853
  31       11.4482
  32       13.1482
 
  0.3333333E+00  0.0000000E+00  0.0000000E+00  0.1286008E-03
   1       -3.6527
   2       -2.2107
   3       -1.8755
   4       -1.8407
   5       -1.8407
   6       -1.6975
   7       -1.6975
   8       -1.2602
   9       -0.5677
  10       -0.5677
  11       -0.3839
  12       -0.3839
  13       -0.3498
  14        0.1315
  15        0.1744
  16        0.1744
  17        0.3031
  18        0.3031
  19        0.4705
  20        0.4778
  21        0.8665
  22        0.8665
  23        5.9796
  24        5.9796
  25        6.3429
  26        6.3429
  27        9.7053
  28        9.7053
  29       10.6032
  30       10.6032
  31       12.0469
  32       13.3973
 
  0.3611111E+00  0.0000000E+00  0.0000000E+00  0.1286008E-03
   1       -3.4987
   2       -2.2343
   3       -1.8304
   4       -1.7792
   5       -1.7792
   6       -1.6182
   7       -1.6182
   8       -1.3105
   9       -0.5184
  10       -0.5184
  11       -0.5088
  12       -0.5088
  13       -0.3860
  14        0.1134
  15        0.1134
  16        0.1570
  17        0.2254
  18        0.2254
  19        0.2339
  20        0.4435
  21        0.8665
  22        0.8665
  23        5.9475
  24        5.9475
  25        6.6108
  26        6.6108
  27        9.4327
  28        9.4327
  29       10.5334
  30       10.5334
  31       12.6535
  32       13.6614
 
  0.3888889E+00  0.0000000E+00  0.0000000E+00  0.1286008E-03
   1       -3.3383
   2       -2.2780
   3       -1.7830
   4       -1.7224
   5       -1.7224
   6       -1.5328
   7       -1.5328
   8       -1.3624
   9       -0.6498
  10       -0.6498
  11       -0.4462
  12       -0.4462
  13       -0.4171
  14        0.0255
  15        0.0569
  16        0.0569
  17        0.1468
  18        0.1468
  19        0.1838
  20        0.4156
  21        0.8666
  22        0.8666
  23        5.9198
  24        5.9198
  25        6.8843
  26        6.8843
  27        9.1546
  28        9.1546
  29       10.4761
  30       10.4761
  31       13.2663
  32       13.9395
 
  0.4166667E+00  0.0000000E+00  0.0000000E+00  0.1286008E-03
   1       -3.1738
   2       -2.3456
   3       -1.7336
   4       -1.6733
   5       -1.6733
   6       -1.4415
   7       -1.4415
   8       -1.4154
   9       -0.7774
  10       -0.7774
  11       -0.4402
  12       -0.3802
  13       -0.3802
  14       -0.1441
  15        0.0080
  16        0.0080
  17        0.0678
  18        0.0678
  19        0.2115
  20        0.3869
  21        0.8666
  22        0.8666
  23        5.8975
  24        5.8975
  25        7.1625
  26        7.1625
  27        8.8725
  28        8.8725
  29       10.4315
  30       10.4315
  31       13.8825
  32       14.2301
 
  0.4444444E+00  0.0000000E+00  0.0000000E+00  0.1286008E-03
   1       -3.0087
   2       -2.4388
   3       -1.6825
   4       -1.6351
   5       -1.6351
   6       -1.4691
   7       -1.3443
   8       -1.3443
   9       -0.9008
  10       -0.9008
  11       -0.4515
  12       -0.3111
  13       -0.3111
  14       -0.2732
  15       -0.0302
  16       -0.0302
  17       -0.0109
  18       -0.0109
  19        0.2400
  20        0.3577
  21        0.8666
  22        0.8666
  23        5.8810
  24        5.8810
  25        7.4443
  26        7.4443
  27        8.5877
  28        8.5877
  29       10.3996
  30       10.3996
  31       14.5168
  32       14.5320
 
  0.4722222E+00  0.0000000E+00  0.0000000E+00  0.1286008E-03
   1       -2.8472
   2       -2.5565
   3       -1.6302
   4       -1.6108
   5       -1.6108
   6       -1.5231
   7       -1.2415
   8       -1.2415
   9       -1.0194
  10       -1.0194
  11       -0.4464
  12       -0.3634
  13       -0.2392
  14       -0.2392
  15       -0.0886
  16       -0.0886
  17       -0.0546
  18       -0.0546
  19        0.2691
  20        0.3281
  21        0.8667
  22        0.8667
  23        5.8710
  24        5.8710
  25        7.7287
  26        7.7287
  27        8.3014
  28        8.3014
  29       10.3805
  30       10.3805
  31       14.8438
  32       14.8438
 
  0.5000000E+00  0.0000000E+00  0.0000000E+00  0.6430041E-04
   1       -2.6945
   2       -2.6945
   3       -1.6024
   4       -1.6024
   5       -1.5769
   6       -1.5769
   7       -1.1331
   8       -1.1331
   9       -1.1331
  10       -1.1331
  11       -0.4191
  12       -0.4191
  13       -0.1649
  14       -0.1649
  15       -0.1649
  16       -0.1649
  17       -0.0630
  18       -0.0630
  19        0.2985
  20        0.2985
  21        0.8667
  22        0.8667
  23        5.8676
  24        5.8676
  25        8.0147
  26        8.0147
  27        8.0147
  28        8.0147
  29       10.3741
  30       10.3741
  31       15.1641
  32       15.1641
 
  0.2777778E-01  0.2777778E-01  0.0000000E+00  0.2572016E-03
   1       -4.5976
   2       -2.3252
   3       -2.3252
   4       -2.3231
   5       -2.1529
   6       -2.1529
   7       -2.1518
   8       -0.9260
   9       -0.9189
  10       -0.9173
  11       -0.0345
  12       -0.0305
  13        0.6401
  14        0.6423
  15        0.6423
  16        0.8400
  17        0.8465
  18        0.8465
  19        0.8610
  20        0.8610
  21        0.8626
  22        4.2098
  23        4.2098
  24        4.3359
  25        6.3136
  26        6.4355
  27        6.4355
  28       11.6325
  29       11.7215
  30       11.7215
  31       11.7220
  32       11.7221
 
  0.5555556E-01  0.2777778E-01  0.0000000E+00  0.5144033E-03
   1       -4.5768
   2       -2.3193
   3       -2.3130
   4       -2.3112
   5       -2.1467
   6       -2.1433
   7       -2.1419
   8       -0.9332
   9       -0.9120
  10       -0.9097
  11       -0.0419
  12       -0.0276
  13        0.6288
  14        0.6305
  15        0.6378
  16        0.7995
  17        0.8041
  18        0.8325
  19        0.8468
  20        0.8609
  21        0.8611
  22        3.9455
  23        4.2676
  24        4.3953
  25        6.3032
  26        6.4272
  27        6.7374
  28       11.5255
  29       11.6669
  30       11.6704
  31       11.7567
  32       11.7592
 
  0.8333333E-01  0.2777778E-01  0.0000000E+00  0.5144033E-03
   1       -4.5420
   2       -2.3098
   3       -2.2929
   4       -2.2915
   5       -2.1363
   6       -2.1272
   7       -2.1256
   8       -0.9461
   9       -0.8995
  10       -0.8971
  11       -0.0553
  12       -0.0216
  13        0.6101
  14        0.6103
  15        0.6302
  16        0.7326
  17        0.7373
  18        0.8095
  19        0.8235
  20        0.8605
  21        0.8611
  22        3.6038
  23        4.3603
  24        4.4910
  25        6.2862
  26        6.4139
  27        7.1418
  28       11.3935
  29       11.5778
  30       11.5904
  31       11.7263
  32       11.8220
 
  0.1111111E+00  0.2777778E-01  0.0000000E+00  0.5144033E-03
   1       -4.4936
   2       -2.2971
   3       -2.2650
   4       -2.2642
   5       -2.1218
   6       -2.1048
   7       -2.1027
   8       -0.9642
   9       -0.8818
  10       -0.8795
  11       -0.0740
  12       -0.0131
  13        0.5796
  14        0.5841
  15        0.6195
  16        0.6445
  17        0.6525
  18        0.7781
  19        0.7913
  20        0.8604
  21        0.8611
  22        3.2315
  23        4.4834
  24        4.6191
  25        6.2631
  26        6.3965
  27        7.6021
  28       11.2418
  29       11.4567
  30       11.4893
  31       11.6632
  32       11.9089
 
  0.1388889E+00  0.2777778E-01  0.0000000E+00  0.5144033E-03
   1       -4.4315
   2       -2.2816
   3       -2.2298
   4       -2.2297
   5       -2.1033
   6       -2.0759
   7       -2.0732
   8       -0.9872
   9       -0.8591
  10       -0.8570
  11       -0.0974
  12       -0.0022
  13        0.5199
  14        0.5395
  15        0.5510
  16        0.5730
  17        0.6052
  18        0.7392
  19        0.7510
  20        0.8604
  21        0.8612
  22        2.8507
  23        4.6317
  24        4.7752
  25        6.2345
  26        6.3762
  27        8.0967
  28       11.0750
  29       11.3068
  30       11.3746
  31       11.5724
  32       12.0196
 
  0.1666667E+00  0.2777778E-01  0.0000000E+00  0.5144033E-03
   1       -4.3561
   2       -2.2642
   3       -2.1885
   4       -2.1877
   5       -2.0809
   6       -2.0406
   7       -2.0373
   8       -1.0148
   9       -0.8315
  10       -0.8297
  11       -0.1253
  12        0.0110
  13        0.4121
  14        0.4218
  15        0.5112
  16        0.5222
  17        0.5867
  18        0.6941
  19        0.7031
  20        0.8604
  21        0.8612
  22        2.4724
  23        4.7998
  24        4.9549
  25        6.2013
  26        6.3552
  27        8.6151
  28       10.8962
  29       11.1314
  30       11.2533
  31       11.4606
  32       12.1524
 
  0.1944444E+00  0.2777778E-01  0.0000000E+00  0.5144033E-03
   1       -4.2676
   2       -2.2459
   3       -2.1412
   4       -2.1394
   5       -2.0547
   6       -1.9990
   7       -1.9949
   8       -1.0468
   9       -0.7990
  10       -0.7976
  11       -0.1571
  12        0.0264
  13        0.2871
  14        0.2951
  15        0.4653
  16        0.4736
  17        0.5617
  18        0.6459
  19        0.6485
  20        0.8605
  21        0.8612
  22        2.1030
  23        4.9817
  24        5.1546
  25        6.1645
  26        6.3362
  27        9.1516
  28       10.7071
  29       10.9337
  30       11.1311
  31       11.3350
  32       12.3088
 
  0.2222222E+00  0.2777778E-01  0.0000000E+00  0.5144033E-03
   1       -4.1665
   2       -2.2281
   3       -2.0885
   4       -2.0855
   5       -2.0249
   6       -1.9510
   7       -1.9460
   8       -1.0827
   9       -0.7618
  10       -0.7608
  11       -0.1921
  12        0.0438
  13        0.1547
  14        0.1624
  15        0.4137
  16        0.4209
  17        0.5246
  18        0.5879
  19        0.6007
  20        0.8606
  21        0.8613
  22        1.7471
  23        5.1708
  24        5.3710
  25        6.1252
  26        6.3240
  27        9.7029
  28       10.5080
  29       10.7172
  30       11.0125
  31       11.2029
  32       12.4846
 
  0.2500000E+00  0.2777778E-01  0.0000000E+00  0.5144033E-03
   1       -4.0531
   2       -2.2125
   3       -2.0312
   4       -2.0271
   5       -1.9916
   6       -1.8967
   7       -1.8910
   8       -1.1224
   9       -0.7199
  10       -0.7196
  11       -0.2296
  12        0.0185
  13        0.0262
  14        0.0633
  15        0.3574
  16        0.3639
  17        0.4703
  18        0.5222
  19        0.5641
  20        0.8607
  21        0.8613
  22        1.4085
  23        5.3577
  24        5.6014
  25        6.0845
  26        6.3264
  27       10.2665
  28       10.2984
  29       10.4847
  30       10.9009
  31       11.0712
  32       12.6795
 
  0.2777778E+00  0.2777778E-01  0.0000000E+00  0.5144033E-03
   1       -3.9281
   2       -2.2015
   3       -1.9704
   4       -1.9654
   5       -1.9550
   6       -1.8361
   7       -1.8298
   8       -1.1652
   9       -0.6743
  10       -0.6735
  11       -0.2683
  12       -0.1192
  13       -0.1115
  14        0.0846
  15        0.2975
  16        0.3035
  17        0.4012
  18        0.4522
  19        0.5335
  20        0.8608
  21        0.8614
  22        1.0919
  23        5.5281
  24        5.8436
  25        6.0437
  26        6.3568
  27       10.0777
  28       10.2389
  29       10.7985
  30       10.8405
  31       10.9458
  32       12.8989
 
  0.3055556E+00  0.2777778E-01  0.0000000E+00  0.5144033E-03
   1       -3.7923
   2       -2.1981
   3       -1.9154
   4       -1.9074
   5       -1.9017
   6       -1.7692
   7       -1.7628
   8       -1.2110
   9       -0.6252
  10       -0.6228
  11       -0.3069
  12       -0.2569
  13       -0.2492
  14        0.1076
  15        0.2354
  16        0.2410
  17        0.3202
  18        0.3788
  19        0.5040
  20        0.8037
  21        0.8609
  22        0.8614
  23        5.6628
  24        6.0039
  25        6.0957
  26        6.4336
  27        9.8458
  28        9.9821
  29       10.7071
  30       10.8307
  31       11.4227
  32       13.1257
 
  0.3333333E+00  0.2777778E-01  0.0000000E+00  0.5144033E-03
   1       -3.6468
   2       -2.2059
   3       -1.8729
   4       -1.8437
   5       -1.8380
   6       -1.6961
   7       -1.6901
   8       -1.2592
   9       -0.5733
  10       -0.5679
  11       -0.3931
  12       -0.3856
  13       -0.3432
  14        0.1321
  15        0.1730
  16        0.1780
  17        0.2236
  18        0.3029
  19        0.4687
  20        0.5594
  21        0.8610
  22        0.8615
  23        5.7489
  24        5.9663
  25        6.3562
  26        6.5693
  27        9.6035
  28        9.7165
  29       10.6276
  30       10.7288
  31       12.0102
  32       13.3754
 
  0.3611111E+00  0.2777778E-01  0.0000000E+00  0.5144033E-03
   1       -3.4930
   2       -2.2295
   3       -1.8279
   4       -1.7817
   5       -1.7764
   6       -1.6170
   7       -1.6120
   8       -1.3093
   9       -0.5269
  10       -0.5216
  11       -0.5197
  12       -0.5090
  13       -0.3726
  14        0.1012
  15        0.1124
  16        0.1168
  17        0.1581
  18        0.2253
  19        0.3450
  20        0.4572
  21        0.8611
  22        0.8615
  23        5.7928
  24        5.9319
  25        6.6236
  26        6.7573
  27        9.3519
  28        9.4438
  29       10.5608
  30       10.6413
  31       12.5983
  32       13.6367
 
  0.3888889E+00  0.2777778E-01  0.0000000E+00  0.5144033E-03
   1       -3.3327
   2       -2.2732
   3       -1.7806
   4       -1.7238
   5       -1.7195
   6       -1.5317
   7       -1.5283
   8       -1.3611
   9       -0.6575
  10       -0.6507
  11       -0.4811
  12       -0.4464
  13       -0.3820
  14       -0.0455
  15        0.0562
  16        0.0601
  17        0.1466
  18        0.1852
  19        0.2100
  20        0.4242
  21        0.8612
  22        0.8615
  23        5.8111
  24        5.9015
  25        6.8968
  26        6.9805
  27        9.0926
  28        9.1657
  29       10.5070
  30       10.5688
  31       13.1768
  32       13.9135
 
  0.4166667E+00  0.2777778E-01  0.0000000E+00  0.5144033E-03
   1       -3.1684
   2       -2.3408
   3       -1.7313
   4       -1.6735
   5       -1.6703
   6       -1.4406
   7       -1.4389
   8       -1.4140
   9       -0.7842
  10       -0.7779
  11       -0.4711
  12       -0.3804
  13       -0.3495
  14       -0.1880
  15        0.0077
  16        0.0107
  17        0.0676
  18        0.1062
  19        0.2134
  20        0.3935
  21        0.8613
  22        0.8615
  23        5.8176
  24        5.8758
  25        7.1747
  26        7.2250
  27        8.8276
  28        8.8837
  29       10.4665
  30       10.5113
  31       13.7231
  32       14.2024
 
  0.4444444E+00  0.2777778E-01  0.0000000E+00  0.5144033E-03
   1       -3.0035
   2       -2.4340
   3       -1.6804
   4       -1.6341
   5       -1.6321
   6       -1.4675
   7       -1.3438
   8       -1.3436
   9       -0.9065
  10       -0.9010
  11       -0.4734
  12       -0.3113
  13       -0.3043
  14       -0.2899
  15       -0.0300
  16       -0.0279
  17       -0.0110
  18        0.0161
  19        0.2425
  20        0.3631
  21        0.8613
  22        0.8615
  23        5.8202
  24        5.8551
  25        7.4562
  26        7.4822
  27        8.5587
  28        8.5990
  29       10.4394
  30       10.4685
  31       14.1999
  32       14.5024
 
  0.4722222E+00  0.2777778E-01  0.0000000E+00  0.5144033E-03
   1       -2.8421
   2       -2.5516
   3       -1.6282
   4       -1.6088
   5       -1.6078
   6       -1.5214
   7       -1.2428
   8       -1.2409
   9       -1.0240
  10       -1.0194
  11       -0.4663
  12       -0.3877
  13       -0.2394
  14       -0.2206
  15       -0.0888
  16       -0.0672
  17       -0.0539
  18       -0.0528
  19        0.2721
  20        0.3326
  21        0.8614
  22        0.8615
  23        5.8233
  24        5.8397
  25        7.7404
  26        7.7472
  27        8.2877
  28        8.3128
  29       10.4259
  30       10.4402
  31       14.5987
  32       14.8120
 
  0.5000000E+00  0.2777778E-01  0.0000000E+00  0.2572016E-03
   1       -2.6895
   2       -2.6895
   3       -1.5998
   4       -1.5998
   5       -1.5751
   6       -1.5751
   7       -1.1362
   8       -1.1362
   9       -1.1328
  10       -1.1328
  11       -0.4400
  12       -0.4400
  13       -0.1650
  14       -0.1650
  15       -0.1460
  16       -0.1460
  17       -0.0618
  18       -0.0618
  19        0.3022
  20        0.3022
  21        0.8614
  22        0.8614
  23        5.8293
  24        5.8293
  25        8.0165
  26        8.0165
  27        8.0262
  28        8.0262
  29       10.4261
  30       10.4261
  31       14.9541
  32       14.9556
 
  0.5555556E-01  0.5555556E-01  0.0000000E+00  0.2572016E-03
   1       -4.5559
   2       -2.3071
   3       -2.3071
   4       -2.2999
   5       -2.1371
   6       -2.1371
   7       -2.1316
   8       -0.9370
   9       -0.9084
  10       -0.9023
  11       -0.0449
  12       -0.0288
  13        0.6177
  14        0.6244
  15        0.6244
  16        0.7664
  17        0.7911
  18        0.7911
  19        0.8468
  20        0.8468
  21        0.8529
  22        4.0003
  23        4.0003
  24        4.4535
  25        6.2924
  26        6.7318
  27        6.7318
  28       11.3712
  29       11.7043
  30       11.7043
  31       11.7084
  32       11.7084
 
  0.8333333E-01  0.5555556E-01  0.0000000E+00  0.5144033E-03
   1       -4.5213
   2       -2.2976
   3       -2.2869
   4       -2.2813
   5       -2.1267
   6       -2.1211
   7       -2.1144
   8       -0.9478
   9       -0.8979
  10       -0.8901
  11       -0.0560
  12       -0.0248
  13        0.5993
  14        0.6000
  15        0.6138
  16        0.7055
  17        0.7277
  18        0.7701
  19        0.8234
  20        0.8468
  21        0.8484
  22        3.6574
  23        4.0877
  24        4.5475
  25        6.2745
  26        6.7231
  27        7.1369
  28       11.1992
  29       11.6148
  30       11.6289
  31       11.7664
  32       11.7715
 
  0.1111111E+00  0.5555556E-01  0.0000000E+00  0.5144033E-03
   1       -4.4730
   2       -2.2847
   3       -2.2590
   4       -2.2556
   5       -2.1123
   6       -2.0987
   7       -2.0904
   8       -0.9648
   9       -0.8812
  10       -0.8730
  11       -0.0736
  12       -0.0166
  13        0.5581
  14        0.5737
  15        0.5980
  16        0.6215
  17        0.6533
  18        0.7420
  19        0.7913
  20        0.8463
  21        0.8468
  22        3.2858
  23        4.2028
  24        4.6735
  25        6.2503
  26        6.7124
  27        7.5960
  28       11.0148
  29       11.4933
  30       11.5286
  31       11.8430
  32       11.8529
 
  0.1388889E+00  0.5555556E-01  0.0000000E+00  0.5144033E-03
   1       -4.4112
   2       -2.2691
   3       -2.2236
   4       -2.2231
   5       -2.0940
   6       -2.0700
   7       -2.0595
   8       -0.9872
   9       -0.8589
  10       -0.8512
  11       -0.0964
  12       -0.0056
  13        0.4830
  14        0.5198
  15        0.5412
  16        0.5757
  17        0.5886
  18        0.7087
  19        0.7509
  20        0.8453
  21        0.8468
  22        2.9072
  23        4.3397
  24        4.8273
  25        6.2201
  26        6.7014
  27        8.0877
  28       10.8226
  29       11.3428
  30       11.4153
  31       11.7984
  32       11.9630
 
  0.1666667E+00  0.5555556E-01  0.0000000E+00  0.5144033E-03
   1       -4.3360
   2       -2.2515
   3       -2.1843
   4       -2.1814
   5       -2.0717
   6       -2.0348
   7       -2.0218
   8       -1.0143
   9       -0.8315
  10       -0.8247
  11       -0.1237
  12        0.0080
  13        0.3762
  14        0.4049
  15        0.5021
  16        0.5366
  17        0.5447
  18        0.6727
  19        0.7030
  20        0.8448
  21        0.8468
  22        2.5325
  23        4.4926
  24        5.0048
  25        6.1850
  26        6.6922
  27        8.6016
  28       10.6257
  29       11.1668
  30       11.2960
  31       11.7246
  32       12.0945
 
  0.1944444E+00  0.5555556E-01  0.0000000E+00  0.5144033E-03
   1       -4.2478
   2       -2.2330
   3       -2.1396
   4       -2.1328
   5       -2.0457
   6       -1.9934
   7       -1.9775
   8       -1.0458
   9       -0.7992
  10       -0.7938
  11       -0.1547
  12        0.0240
  13        0.2534
  14        0.2808
  15        0.4568
  16        0.4859
  17        0.5024
  18        0.6371
  19        0.6483
  20        0.8446
  21        0.8468
  22        2.1684
  23        4.6557
  24        5.2024
  25        6.1457
  26        6.6878
  27        9.1319
  28       10.4261
  29       10.9687
  30       11.1766
  31       11.6269
  32       12.2488
 
  0.2222222E+00  0.5555556E-01  0.0000000E+00  0.5144033E-03
   1       -4.1470
   2       -2.2150
   3       -2.0895
   4       -2.0787
   5       -2.0161
   6       -1.9456
   7       -1.9269
   8       -1.0814
   9       -0.7620
  10       -0.7585
  11       -0.1888
  12        0.0422
  13        0.1225
  14        0.1504
  15        0.4060
  16        0.4321
  17        0.4472
  18        0.5876
  19        0.6034
  20        0.8445
  21        0.8468
  22        1.8196
  23        4.8227
  24        5.4168
  25        6.1035
  26        6.6922
  27        9.6749
  28       10.2246
  29       10.7517
  30       11.0617
  31       11.5123
  32       12.4255
 
  0.2500000E+00  0.5555556E-01  0.0000000E+00  0.5144033E-03
   1       -4.0340
   2       -2.1991
   3       -2.0348
   4       -2.0201
   5       -1.9830
   6       -1.8916
   7       -1.8703
   8       -1.1206
   9       -0.7202
  10       -0.7194
  11       -0.2248