       N       E                     dE             d eps       ncg     rms          rms(c)
DAV:   1     0.563693747118E+03    0.56369E+03   -0.30216E+04 85120   0.222E+03
DAV:   2     0.882573623560E+01   -0.55487E+03   -0.50833E+03 85176   0.472E+02
DAV:   3    -0.124249236866E+02   -0.21251E+02   -0.20692E+02100592   0.107E+02
DAV:   4    -0.126582035292E+02   -0.23328E+00   -0.23304E+00 91896   0.101E+01
DAV:   5    -0.126600679254E+02   -0.18644E-02   -0.18641E-02102040   0.853E-01    0.489E+00
DAV:   6    -0.118956553038E+02    0.76441E+00   -0.21151E+00 95240   0.127E+01    0.116E+00
DAV:   7    -0.118790795522E+02    0.16576E-01   -0.71731E-02 93976   0.169E+00    0.628E-01
DAV:   8    -0.118762446514E+02    0.28349E-02   -0.61749E-03 93064   0.708E-01    0.450E-02
DAV:   9    -0.118763586848E+02   -0.11403E-03   -0.20744E-04100448   0.999E-02    0.256E-02
DAV:  10    -0.118763662656E+02   -0.75807E-05   -0.23430E-05 94208   0.299E-02    0.258E-03
DAV:  11    -0.118763672488E+02   -0.98329E-06   -0.91476E-07 99104   0.684E-03    0.124E-03
DAV:  12    -0.118763667572E+02    0.49167E-06   -0.93729E-08 95576   0.275E-03    0.114E-04
DAV:  13    -0.118763667517E+02    0.54911E-08   -0.64289E-10 62912   0.234E-04
   1 F= -.11876367E+02 E0= -.11876327E+02  d E =-.788803E-04
