 vasp.4.6.28 25Jul05 complex 
 executed on             LinuxIFC date 2017.01.14  06:50:34
 running on    8 nodes
 distr:  one band on    1 nodes,    8 groups


--------------------------------------------------------------------------------------------------------


 INCAR:
 POTCAR:   PAW_PBE Au 06Sep2000                   
 POTCAR:   PAW_PBE Au 06Sep2000                   
   VRHFIN =Au: s1d10                                                            
   LEXCH  = PE                                                                  
   EATOM  =   926.0567 eV,   68.0632 Ry                                         
                                                                                
   TITEL  = PAW_PBE Au 06Sep2000                                                
   LULTRA =        F    use ultrasoft PP ?                                      
   IUNSCR =        1    unscreen: 0-lin 1-nonlin 2-no                           
   RPACOR =    2.330    partial core radius                                     
   POMASS =  196.966; ZVAL   =   11.000    mass and valenz                      
   RCORE  =    2.500    outmost cutoff radius                                   
   RWIGS  =    2.840; RWIGS  =    1.503    wigner-seitz radius (au A)           
   ENMAX  =  229.948; ENMIN  =  172.461 eV                                      
   RCLOC  =    1.964    cutoff for local pot                                    
   LCOR   =        T    correct aug charges                                     
   LPAW   =        T    paw PP                                                  
   EAUG   =  356.670                                                            
   DEXC   =    -.025                                                            
   RMAX   =    3.041    core radius for proj-oper                               
   RAUG   =    1.300    factor for augmentation sphere                          
   RDEP   =    2.598    radius for radial grids                                 
   QCUT   =   -4.111; QGAM   =    8.222    optimization parameters              
                                                                                
   Description                                                                  
     l     E      TYP  RCUT    TYP  RCUT                                        
     2   .000     23  2.500                                                     
     2   .000     23  2.500                                                     
     0   .000     23  2.500                                                     
     0   .000     23  2.500                                                     
     1  -.200     23  2.500                                                     
     1   .000     23  2.500                                                     
     3   .000      7   .000                                                     
  local pseudopotential read in
  partial core-charges read in
  atomic valenz-charges read in
  non local Contribution for L=           2  read in
    real space projection operators read in
  non local Contribution for L=           2  read in
    real space projection operators read in
  non local Contribution for L=           0  read in
    real space projection operators read in
  non local Contribution for L=           0  read in
    real space projection operators read in
  non local Contribution for L=           1  read in
    real space projection operators read in
  non local Contribution for L=           1  read in
    real space projection operators read in
    PAW grid and wavefunctions read in
 
   number of l-projection  operators is LMAX  =           6
   number of lm-projection operators is LMMAX =          18
 
 WARNING: PSMAXN for non-local potential too small
          PSMAXN should be >   16.2007969712021       NTYP=           1
 PAW_PBE Au 06Sep2000                   :
 energy of atom  1       EATOM= -926.0567
 kinetic energy error for atom=    0.0003 (will be added to EATOM!!)
 
 EXHCAR: internal setup
 exchange correlation table for  LEXCH =        8
   RHO(1)=    0.500       N(1)  =     2000
   RHO(2)=  100.500       N(2)  =     4000
 
 POSCAR: Au                                      
  positions in direct lattice
  velocities in cartesian coordinates
 


--------------------------------------------------------------------------------------------------------


 ion  position               nearest neighbor table
   1  0.000  0.000  0.000-   2 3.19   3 3.19   4 3.19   3 3.19   4 3.19   2 3.19   4 3.19   4 3.19
                             2 3.19   3 3.19   3 3.19   2 3.19
   2  0.500  0.500  0.000-   1 3.19   3 3.19   4 3.19   3 3.19   4 3.19   1 3.19   3 3.19   3 3.19
                             1 3.19   4 3.19   4 3.19   1 3.19
   3  0.500  0.000  0.500-   1 3.19   2 3.19   4 3.19   1 3.19   2 3.19   2 3.19   4 3.19   2 3.19
                             1 3.19   4 3.19   1 3.19   4 3.19
   4  0.000  0.500  0.500-   1 3.19   2 3.19   3 3.19   1 3.19   2 3.19   1 3.19   3 3.19   1 3.19
                             2 3.19   3 3.19   2 3.19   3 3.19
 
  LATTYP: Found a simple cubic cell.
 ALAT       =     4.5073383539
  
  Lattice vectors:
  
 A1 = (   4.5073383539,   0.0000000000,   0.0000000000)
 A2 = (   0.0000000000,   4.5073383539,   0.0000000000)
 A3 = (   0.0000000000,   0.0000000000,   4.5073383539)
 Subroutine PRICEL returns following result:
 
  LATTYP: Found a face centered cubic cell.
 ALAT       =     4.5073383539
  
  Lattice vectors:
  
 A1 = (   2.2536691770,   2.2536691770,   0.0000000000)
 A2 = (   2.2536691770,   0.0000000000,  -2.2536691770)
 A3 = (   0.0000000000,   2.2536691770,  -2.2536691770)
 
   4 primitive cells build up your supercell.
 

Analysis of symmetry for initial positions (statically):

 Routine SETGRP: Setting up the symmetry group for a 
 simple cubic supercell.


 Subroutine GETGRP returns: Found 48 space group operations
 (whereof 48 operations were pure point group operations)
 out of a pool of 48 trial point group operations.


The static configuration has the point symmetry O_h .

Analysis of symmetry for dynamics (positions and initial velocities):

 Subroutine DYNSYM returns: Found 48 space group operations
 (whereof 48 operations were pure point group operations)
 out of a pool of 48 trial space group operations
 (whereof 48 operations were pure point group operations)
 and found also     4 'primitive' translations


The dynamic configuration has the point symmetry O_h .
 
 
 KPOINTS: Automatic mesh                          

Automatic generation of k-mesh.
 
 Subroutine IBZKPT returns following result:
 ===========================================
 
 Found   1330 irreducible k-points:
 
 Following reciprocal coordinates:
            Coordinates               Weight
  0.000000  0.000000  0.000000      1.000000
  0.027778  0.000000  0.000000      6.000000
  0.055556  0.000000  0.000000      6.000000
  0.083333  0.000000  0.000000      6.000000
  0.111111  0.000000  0.000000      6.000000
  0.138889  0.000000  0.000000      6.000000
  0.166667  0.000000  0.000000      6.000000
  0.194444  0.000000  0.000000      6.000000
  0.222222  0.000000  0.000000      6.000000
  0.250000  0.000000  0.000000      6.000000
  0.277778  0.000000  0.000000      6.000000
  0.305556  0.000000  0.000000      6.000000
  0.333333  0.000000  0.000000      6.000000
  0.361111  0.000000  0.000000      6.000000
  0.388889  0.000000  0.000000      6.000000
  0.416667  0.000000  0.000000      6.000000
  0.444444  0.000000  0.000000      6.000000
  0.472222  0.000000  0.000000      6.000000
  0.500000  0.000000  0.000000      3.000000
  0.027778  0.027778  0.000000     12.000000
  0.055556  0.027778  0.000000     24.000000
  0.083333  0.027778  0.000000     24.000000
  0.111111  0.027778  0.000000     24.000000
  0.138889  0.027778  0.000000     24.000000
  0.166667  0.027778  0.000000     24.000000
  0.194444  0.027778  0.000000     24.000000
  0.222222  0.027778  0.000000     24.000000
  0.250000  0.027778  0.000000     24.000000
  0.277778  0.027778  0.000000     24.000000
  0.305556  0.027778  0.000000     24.000000
  0.333333  0.027778  0.000000     24.000000
  0.361111  0.027778  0.000000     24.000000
  0.388889  0.027778  0.000000     24.000000
  0.416667  0.027778  0.000000     24.000000
  0.444444  0.027778  0.000000     24.000000
  0.472222  0.027778  0.000000     24.000000
  0.500000  0.027778  0.000000     12.000000
  0.055556  0.055556  0.000000     12.000000
  0.083333  0.055556  0.000000     24.000000
  0.111111  0.055556  0.000000     24.000000
  0.138889  0.055556  0.000000     24.000000
  0.166667  0.055556  0.000000     24.000000
  0.194444  0.055556  0.000000     24.000000
  0.222222  0.055556  0.000000     24.000000
  0.250000  0.055556  0.000000     24.000000
  0.277778  0.055556  0.000000     24.000000
  0.305556  0.055556  0.000000     24.000000
  0.333333  0.055556  0.000000     24.000000
  0.361111  0.055556  0.000000     24.000000
  0.388889  0.055556  0.000000     24.000000
  0.416667  0.055556  0.000000     24.000000
  0.444444  0.055556  0.000000     24.000000
  0.472222  0.055556  0.000000     24.000000
  0.500000  0.055556  0.000000     12.000000
  0.083333  0.083333  0.000000     12.000000
  0.111111  0.083333  0.000000     24.000000
  0.138889  0.083333  0.000000     24.000000
  0.166667  0.083333  0.000000     24.000000
  0.194444  0.083333  0.000000     24.000000
  0.222222  0.083333  0.000000     24.000000
  0.250000  0.083333  0.000000     24.000000
  0.277778  0.083333  0.000000     24.000000
  0.305556  0.083333  0.000000     24.000000
  0.333333  0.083333  0.000000     24.000000
  0.361111  0.083333  0.000000     24.000000
  0.388889  0.083333  0.000000     24.000000
  0.416667  0.083333  0.000000     24.000000
  0.444444  0.083333  0.000000     24.000000
  0.472222  0.083333  0.000000     24.000000
  0.500000  0.083333  0.000000     12.000000
  0.111111  0.111111  0.000000     12.000000
  0.138889  0.111111  0.000000     24.000000
  0.166667  0.111111  0.000000     24.000000
  0.194444  0.111111  0.000000     24.000000
  0.222222  0.111111  0.000000     24.000000
  0.250000  0.111111  0.000000     24.000000
  0.277778  0.111111  0.000000     24.000000
  0.305556  0.111111  0.000000     24.000000
  0.333333  0.111111  0.000000     24.000000
  0.361111  0.111111  0.000000     24.000000
  0.388889  0.111111  0.000000     24.000000
  0.416667  0.111111  0.000000     24.000000
  0.444444  0.111111  0.000000     24.000000
  0.472222  0.111111  0.000000     24.000000
  0.500000  0.111111  0.000000     12.000000
  0.138889  0.138889  0.000000     12.000000
  0.166667  0.138889  0.000000     24.000000
  0.194444  0.138889  0.000000     24.000000
  0.222222  0.138889  0.000000     24.000000
  0.250000  0.138889  0.000000     24.000000
  0.277778  0.138889  0.000000     24.000000
  0.305556  0.138889  0.000000     24.000000
  0.333333  0.138889  0.000000     24.000000
  0.361111  0.138889  0.000000     24.000000
  0.388889  0.138889  0.000000     24.000000
  0.416667  0.138889  0.000000     24.000000
  0.444444  0.138889  0.000000     24.000000
  0.472222  0.138889  0.000000     24.000000
  0.500000  0.138889  0.000000     12.000000
  0.166667  0.166667  0.000000     12.000000
  0.194444  0.166667  0.000000     24.000000
  0.222222  0.166667  0.000000     24.000000
  0.250000  0.166667  0.000000     24.000000
  0.277778  0.166667  0.000000     24.000000
  0.305556  0.166667  0.000000     24.000000
  0.333333  0.166667  0.000000     24.000000
  0.361111  0.166667  0.000000     24.000000
  0.388889  0.166667  0.000000     24.000000
  0.416667  0.166667  0.000000     24.000000
  0.444444  0.166667  0.000000     24.000000
  0.472222  0.166667  0.000000     24.000000
  0.500000  0.166667  0.000000     12.000000
  0.194444  0.194444  0.000000     12.000000
  0.222222  0.194444  0.000000     24.000000
  0.250000  0.194444  0.000000     24.000000
  0.277778  0.194444  0.000000     24.000000
  0.305556  0.194444  0.000000     24.000000
  0.333333  0.194444  0.000000     24.000000
  0.361111  0.194444  0.000000     24.000000
  0.388889  0.194444  0.000000     24.000000
  0.416667  0.194444  0.000000     24.000000
  0.444444  0.194444  0.000000     24.000000
  0.472222  0.194444  0.000000     24.000000
  0.500000  0.194444  0.000000     12.000000
  0.222222  0.222222  0.000000     12.000000
  0.250000  0.222222  0.000000     24.000000
  0.277778  0.222222  0.000000     24.000000
  0.305556  0.222222  0.000000     24.000000
  0.333333  0.222222  0.000000     24.000000
  0.361111  0.222222  0.000000     24.000000
  0.388889  0.222222  0.000000     24.000000
  0.416667  0.222222  0.000000     24.000000
  0.444444  0.222222  0.000000     24.000000
  0.472222  0.222222  0.000000     24.000000
  0.500000  0.222222  0.000000     12.000000
  0.250000  0.250000  0.000000     12.000000
  0.277778  0.250000  0.000000     24.000000
  0.305556  0.250000  0.000000     24.000000
  0.333333  0.250000  0.000000     24.000000
  0.361111  0.250000  0.000000     24.000000
  0.388889  0.250000  0.000000     24.000000
  0.416667  0.250000  0.000000     24.000000
  0.444444  0.250000  0.000000     24.000000
  0.472222  0.250000  0.000000     24.000000
  0.500000  0.250000  0.000000     12.000000
  0.277778  0.277778  0.000000     12.000000
  0.305556  0.277778  0.000000     24.000000
  0.333333  0.277778  0.000000     24.000000
  0.361111  0.277778  0.000000     24.000000
  0.388889  0.277778  0.000000     24.000000
  0.416667  0.277778  0.000000     24.000000
  0.444444  0.277778  0.000000     24.000000
  0.472222  0.277778  0.000000     24.000000
  0.500000  0.277778  0.000000     12.000000
  0.305556  0.305556  0.000000     12.000000
  0.333333  0.305556  0.000000     24.000000
  0.361111  0.305556  0.000000     24.000000
  0.388889  0.305556  0.000000     24.000000
  0.416667  0.305556  0.000000     24.000000
  0.444444  0.305556  0.000000     24.000000
  0.472222  0.305556  0.000000     24.000000
  0.500000  0.305556  0.000000     12.000000
  0.333333  0.333333  0.000000     12.000000
  0.361111  0.333333  0.000000     24.000000
  0.388889  0.333333  0.000000     24.000000
  0.416667  0.333333  0.000000     24.000000
  0.444444  0.333333  0.000000     24.000000
  0.472222  0.333333  0.000000     24.000000
  0.500000  0.333333  0.000000     12.000000
  0.361111  0.361111  0.000000     12.000000
  0.388889  0.361111  0.000000     24.000000
  0.416667  0.361111  0.000000     24.000000
  0.444444  0.361111  0.000000     24.000000
  0.472222  0.361111  0.000000     24.000000
  0.500000  0.361111  0.000000     12.000000
  0.388889  0.388889  0.000000     12.000000
  0.416667  0.388889  0.000000     24.000000
  0.444444  0.388889  0.000000     24.000000
  0.472222  0.388889  0.000000     24.000000
  0.500000  0.388889  0.000000     12.000000
  0.416667  0.416667  0.000000     12.000000
  0.444444  0.416667  0.000000     24.000000
  0.472222  0.416667  0.000000     24.000000
  0.500000  0.416667  0.000000     12.000000
  0.444444  0.444444  0.000000     12.000000
  0.472222  0.444444  0.000000     24.000000
  0.500000  0.444444  0.000000     12.000000
  0.472222  0.472222  0.000000     12.000000
  0.500000  0.472222  0.000000     12.000000
  0.500000  0.500000  0.000000      3.000000
  0.027778  0.027778  0.027778      8.000000
  0.055556  0.027778  0.027778     24.000000
  0.083333  0.027778  0.027778     24.000000
  0.111111  0.027778  0.027778     24.000000
  0.138889  0.027778  0.027778     24.000000
  0.166667  0.027778  0.027778     24.000000
  0.194444  0.027778  0.027778     24.000000
  0.222222  0.027778  0.027778     24.000000
  0.250000  0.027778  0.027778     24.000000
  0.277778  0.027778  0.027778     24.000000
  0.305556  0.027778  0.027778     24.000000
  0.333333  0.027778  0.027778     24.000000
  0.361111  0.027778  0.027778     24.000000
  0.388889  0.027778  0.027778     24.000000
  0.416667  0.027778  0.027778     24.000000
  0.444444  0.027778  0.027778     24.000000
  0.472222  0.027778  0.027778     24.000000
  0.500000  0.027778  0.027778     12.000000
  0.055556  0.055556  0.027778     24.000000
  0.083333  0.055556  0.027778     48.000000
  0.111111  0.055556  0.027778     48.000000
  0.138889  0.055556  0.027778     48.000000
  0.166667  0.055556  0.027778     48.000000
  0.194444  0.055556  0.027778     48.000000
  0.222222  0.055556  0.027778     48.000000
  0.250000  0.055556  0.027778     48.000000
  0.277778  0.055556  0.027778     48.000000
  0.305556  0.055556  0.027778     48.000000
  0.333333  0.055556  0.027778     48.000000
  0.361111  0.055556  0.027778     48.000000
  0.388889  0.055556  0.027778     48.000000
  0.416667  0.055556  0.027778     48.000000
  0.444444  0.055556  0.027778     48.000000
  0.472222  0.055556  0.027778     48.000000
  0.500000  0.055556  0.027778     24.000000
  0.083333  0.083333  0.027778     24.000000
  0.111111  0.083333  0.027778     48.000000
  0.138889  0.083333  0.027778     48.000000
  0.166667  0.083333  0.027778     48.000000
  0.194444  0.083333  0.027778     48.000000
  0.222222  0.083333  0.027778     48.000000
  0.250000  0.083333  0.027778     48.000000
  0.277778  0.083333  0.027778     48.000000
  0.305556  0.083333  0.027778     48.000000
  0.333333  0.083333  0.027778     48.000000
  0.361111  0.083333  0.027778     48.000000
  0.388889  0.083333  0.027778     48.000000
  0.416667  0.083333  0.027778     48.000000
  0.444444  0.083333  0.027778     48.000000
  0.472222  0.083333  0.027778     48.000000
  0.500000  0.083333  0.027778     24.000000
  0.111111  0.111111  0.027778     24.000000
  0.138889  0.111111  0.027778     48.000000
  0.166667  0.111111  0.027778     48.000000
  0.194444  0.111111  0.027778     48.000000
  0.222222  0.111111  0.027778     48.000000
  0.250000  0.111111  0.027778     48.000000
  0.277778  0.111111  0.027778     48.000000
  0.305556  0.111111  0.027778     48.000000
  0.333333  0.111111  0.027778     48.000000
  0.361111  0.111111  0.027778     48.000000
  0.388889  0.111111  0.027778     48.000000
  0.416667  0.111111  0.027778     48.000000
  0.444444  0.111111  0.027778     48.000000
  0.472222  0.111111  0.027778     48.000000
  0.500000  0.111111  0.027778     24.000000
  0.138889  0.138889  0.027778     24.000000
  0.166667  0.138889  0.027778     48.000000
  0.194444  0.138889  0.027778     48.000000
  0.222222  0.138889  0.027778     48.000000
  0.250000  0.138889  0.027778     48.000000
  0.277778  0.138889  0.027778     48.000000
  0.305556  0.138889  0.027778     48.000000
  0.333333  0.138889  0.027778     48.000000
  0.361111  0.138889  0.027778     48.000000
  0.388889  0.138889  0.027778     48.000000
  0.416667  0.138889  0.027778     48.000000
  0.444444  0.138889  0.027778     48.000000
  0.472222  0.138889  0.027778     48.000000
  0.500000  0.138889  0.027778     24.000000
  0.166667  0.166667  0.027778     24.000000
  0.194444  0.166667  0.027778     48.000000
  0.222222  0.166667  0.027778     48.000000
  0.250000  0.166667  0.027778     48.000000
  0.277778  0.166667  0.027778     48.000000
  0.305556  0.166667  0.027778     48.000000
  0.333333  0.166667  0.027778     48.000000
  0.361111  0.166667  0.027778     48.000000
  0.388889  0.166667  0.027778     48.000000
  0.416667  0.166667  0.027778     48.000000
  0.444444  0.166667  0.027778     48.000000
  0.472222  0.166667  0.027778     48.000000
  0.500000  0.166667  0.027778     24.000000
  0.194444  0.194444  0.027778     24.000000
  0.222222  0.194444  0.027778     48.000000
  0.250000  0.194444  0.027778     48.000000
  0.277778  0.194444  0.027778     48.000000
  0.305556  0.194444  0.027778     48.000000
  0.333333  0.194444  0.027778     48.000000
  0.361111  0.194444  0.027778     48.000000
  0.388889  0.194444  0.027778     48.000000
  0.416667  0.194444  0.027778     48.000000
  0.444444  0.194444  0.027778     48.000000
  0.472222  0.194444  0.027778     48.000000
  0.500000  0.194444  0.027778     24.000000
  0.222222  0.222222  0.027778     24.000000
  0.250000  0.222222  0.027778     48.000000
  0.277778  0.222222  0.027778     48.000000
  0.305556  0.222222  0.027778     48.000000
  0.333333  0.222222  0.027778     48.000000
  0.361111  0.222222  0.027778     48.000000
  0.388889  0.222222  0.027778     48.000000
  0.416667  0.222222  0.027778     48.000000
  0.444444  0.222222  0.027778     48.000000
  0.472222  0.222222  0.027778     48.000000
  0.500000  0.222222  0.027778     24.000000
  0.250000  0.250000  0.027778     24.000000
  0.277778  0.250000  0.027778     48.000000
  0.305556  0.250000  0.027778     48.000000
  0.333333  0.250000  0.027778     48.000000
  0.361111  0.250000  0.027778     48.000000
  0.388889  0.250000  0.027778     48.000000
  0.416667  0.250000  0.027778     48.000000
  0.444444  0.250000  0.027778     48.000000
  0.472222  0.250000  0.027778     48.000000
  0.500000  0.250000  0.027778     24.000000
  0.277778  0.277778  0.027778     24.000000
  0.305556  0.277778  0.027778     48.000000
  0.333333  0.277778  0.027778     48.000000
  0.361111  0.277778  0.027778     48.000000
  0.388889  0.277778  0.027778     48.000000
  0.416667  0.277778  0.027778     48.000000
  0.444444  0.277778  0.027778     48.000000
  0.472222  0.277778  0.027778     48.000000
  0.500000  0.277778  0.027778     24.000000
  0.305556  0.305556  0.027778     24.000000
  0.333333  0.305556  0.027778     48.000000
  0.361111  0.305556  0.027778     48.000000
  0.388889  0.305556  0.027778     48.000000
  0.416667  0.305556  0.027778     48.000000
  0.444444  0.305556  0.027778     48.000000
  0.472222  0.305556  0.027778     48.000000
  0.500000  0.305556  0.027778     24.000000
  0.333333  0.333333  0.027778     24.000000
  0.361111  0.333333  0.027778     48.000000
  0.388889  0.333333  0.027778     48.000000
  0.416667  0.333333  0.027778     48.000000
  0.444444  0.333333  0.027778     48.000000
  0.472222  0.333333  0.027778     48.000000
  0.500000  0.333333  0.027778     24.000000
  0.361111  0.361111  0.027778     24.000000
  0.388889  0.361111  0.027778     48.000000
  0.416667  0.361111  0.027778     48.000000
  0.444444  0.361111  0.027778     48.000000
  0.472222  0.361111  0.027778     48.000000
  0.500000  0.361111  0.027778     24.000000
  0.388889  0.388889  0.027778     24.000000
  0.416667  0.388889  0.027778     48.000000
  0.444444  0.388889  0.027778     48.000000
  0.472222  0.388889  0.027778     48.000000
  0.500000  0.388889  0.027778     24.000000
  0.416667  0.416667  0.027778     24.000000
  0.444444  0.416667  0.027778     48.000000
  0.472222  0.416667  0.027778     48.000000
  0.500000  0.416667  0.027778     24.000000
  0.444444  0.444444  0.027778     24.000000
  0.472222  0.444444  0.027778     48.000000
  0.500000  0.444444  0.027778     24.000000
  0.472222  0.472222  0.027778     24.000000
  0.500000  0.472222  0.027778     24.000000
  0.500000  0.500000  0.027778      6.000000
  0.055556  0.055556  0.055556      8.000000
  0.083333  0.055556  0.055556     24.000000
  0.111111  0.055556  0.055556     24.000000
  0.138889  0.055556  0.055556     24.000000
  0.166667  0.055556  0.055556     24.000000
  0.194444  0.055556  0.055556     24.000000
  0.222222  0.055556  0.055556     24.000000
  0.250000  0.055556  0.055556     24.000000
  0.277778  0.055556  0.055556     24.000000
  0.305556  0.055556  0.055556     24.000000
  0.333333  0.055556  0.055556     24.000000
  0.361111  0.055556  0.055556     24.000000
  0.388889  0.055556  0.055556     24.000000
  0.416667  0.055556  0.055556     24.000000
  0.444444  0.055556  0.055556     24.000000
  0.472222  0.055556  0.055556     24.000000
  0.500000  0.055556  0.055556     12.000000
  0.083333  0.083333  0.055556     24.000000
  0.111111  0.083333  0.055556     48.000000
  0.138889  0.083333  0.055556     48.000000
  0.166667  0.083333  0.055556     48.000000
  0.194444  0.083333  0.055556     48.000000
  0.222222  0.083333  0.055556     48.000000
  0.250000  0.083333  0.055556     48.000000
  0.277778  0.083333  0.055556     48.000000
  0.305556  0.083333  0.055556     48.000000
  0.333333  0.083333  0.055556     48.000000
  0.361111  0.083333  0.055556     48.000000
  0.388889  0.083333  0.055556     48.000000
  0.416667  0.083333  0.055556     48.000000
  0.444444  0.083333  0.055556     48.000000
  0.472222  0.083333  0.055556     48.000000
  0.500000  0.083333  0.055556     24.000000
  0.111111  0.111111  0.055556     24.000000
  0.138889  0.111111  0.055556     48.000000
  0.166667  0.111111  0.055556     48.000000
  0.194444  0.111111  0.055556     48.000000
  0.222222  0.111111  0.055556     48.000000
  0.250000  0.111111  0.055556     48.000000
  0.277778  0.111111  0.055556     48.000000
  0.305556  0.111111  0.055556     48.000000
  0.333333  0.111111  0.055556     48.000000
  0.361111  0.111111  0.055556     48.000000
  0.388889  0.111111  0.055556     48.000000
  0.416667  0.111111  0.055556     48.000000
  0.444444  0.111111  0.055556     48.000000
  0.472222  0.111111  0.055556     48.000000
  0.500000  0.111111  0.055556     24.000000
  0.138889  0.138889  0.055556     24.000000
  0.166667  0.138889  0.055556     48.000000
  0.194444  0.138889  0.055556     48.000000
  0.222222  0.138889  0.055556     48.000000
  0.250000  0.138889  0.055556     48.000000
  0.277778  0.138889  0.055556     48.000000
  0.305556  0.138889  0.055556     48.000000
  0.333333  0.138889  0.055556     48.000000
  0.361111  0.138889  0.055556     48.000000
  0.388889  0.138889  0.055556     48.000000
  0.416667  0.138889  0.055556     48.000000
  0.444444  0.138889  0.055556     48.000000
  0.472222  0.138889  0.055556     48.000000
  0.500000  0.138889  0.055556     24.000000
  0.166667  0.166667  0.055556     24.000000
  0.194444  0.166667  0.055556     48.000000
  0.222222  0.166667  0.055556     48.000000
  0.250000  0.166667  0.055556     48.000000
  0.277778  0.166667  0.055556     48.000000
  0.305556  0.166667  0.055556     48.000000
  0.333333  0.166667  0.055556     48.000000
  0.361111  0.166667  0.055556     48.000000
  0.388889  0.166667  0.055556     48.000000
  0.416667  0.166667  0.055556     48.000000
  0.444444  0.166667  0.055556     48.000000
  0.472222  0.166667  0.055556     48.000000
  0.500000  0.166667  0.055556     24.000000
  0.194444  0.194444  0.055556     24.000000
  0.222222  0.194444  0.055556     48.000000
  0.250000  0.194444  0.055556     48.000000
  0.277778  0.194444  0.055556     48.000000
  0.305556  0.194444  0.055556     48.000000
  0.333333  0.194444  0.055556     48.000000
  0.361111  0.194444  0.055556     48.000000
  0.388889  0.194444  0.055556     48.000000
  0.416667  0.194444  0.055556     48.000000
  0.444444  0.194444  0.055556     48.000000
  0.472222  0.194444  0.055556     48.000000
  0.500000  0.194444  0.055556     24.000000
  0.222222  0.222222  0.055556     24.000000
  0.250000  0.222222  0.055556     48.000000
  0.277778  0.222222  0.055556     48.000000
  0.305556  0.222222  0.055556     48.000000
  0.333333  0.222222  0.055556     48.000000
  0.361111  0.222222  0.055556     48.000000
  0.388889  0.222222  0.055556     48.000000
  0.416667  0.222222  0.055556     48.000000
  0.444444  0.222222  0.055556     48.000000
  0.472222  0.222222  0.055556     48.000000
  0.500000  0.222222  0.055556     24.000000
  0.250000  0.250000  0.055556     24.000000
  0.277778  0.250000  0.055556     48.000000
  0.305556  0.250000  0.055556     48.000000
  0.333333  0.250000  0.055556     48.000000
  0.361111  0.250000  0.055556     48.000000
  0.388889  0.250000  0.055556     48.000000
  0.416667  0.250000  0.055556     48.000000
  0.444444  0.250000  0.055556     48.000000
  0.472222  0.250000  0.055556     48.000000
  0.500000  0.250000  0.055556     24.000000
  0.277778  0.277778  0.055556     24.000000
  0.305556  0.277778  0.055556     48.000000
  0.333333  0.277778  0.055556     48.000000
  0.361111  0.277778  0.055556     48.000000
  0.388889  0.277778  0.055556     48.000000
  0.416667  0.277778  0.055556     48.000000
  0.444444  0.277778  0.055556     48.000000
  0.472222  0.277778  0.055556     48.000000
  0.500000  0.277778  0.055556     24.000000
  0.305556  0.305556  0.055556     24.000000
  0.333333  0.305556  0.055556     48.000000
  0.361111  0.305556  0.055556     48.000000
  0.388889  0.305556  0.055556     48.000000
  0.416667  0.305556  0.055556     48.000000
  0.444444  0.305556  0.055556     48.000000
  0.472222  0.305556  0.055556     48.000000
  0.500000  0.305556  0.055556     24.000000
  0.333333  0.333333  0.055556     24.000000
  0.361111  0.333333  0.055556     48.000000
  0.388889  0.333333  0.055556     48.000000
  0.416667  0.333333  0.055556     48.000000
  0.444444  0.333333  0.055556     48.000000
  0.472222  0.333333  0.055556     48.000000
  0.500000  0.333333  0.055556     24.000000
  0.361111  0.361111  0.055556     24.000000
  0.388889  0.361111  0.055556     48.000000
  0.416667  0.361111  0.055556     48.000000
  0.444444  0.361111  0.055556     48.000000
  0.472222  0.361111  0.055556     48.000000
  0.500000  0.361111  0.055556     24.000000
  0.388889  0.388889  0.055556     24.000000
  0.416667  0.388889  0.055556     48.000000
  0.444444  0.388889  0.055556     48.000000
  0.472222  0.388889  0.055556     48.000000
  0.500000  0.388889  0.055556     24.000000
  0.416667  0.416667  0.055556     24.000000
  0.444444  0.416667  0.055556     48.000000
  0.472222  0.416667  0.055556     48.000000
  0.500000  0.416667  0.055556     24.000000
  0.444444  0.444444  0.055556     24.000000
  0.472222  0.444444  0.055556     48.000000
  0.500000  0.444444  0.055556     24.000000
  0.472222  0.472222  0.055556     24.000000
  0.500000  0.472222  0.055556     24.000000
  0.500000  0.500000  0.055556      6.000000
  0.083333  0.083333  0.083333      8.000000
  0.111111  0.083333  0.083333     24.000000
  0.138889  0.083333  0.083333     24.000000
  0.166667  0.083333  0.083333     24.000000
  0.194444  0.083333  0.083333     24.000000
  0.222222  0.083333  0.083333     24.000000
  0.250000  0.083333  0.083333     24.000000
  0.277778  0.083333  0.083333     24.000000
  0.305556  0.083333  0.083333     24.000000
  0.333333  0.083333  0.083333     24.000000
  0.361111  0.083333  0.083333     24.000000
  0.388889  0.083333  0.083333     24.000000
  0.416667  0.083333  0.083333     24.000000
  0.444444  0.083333  0.083333     24.000000
  0.472222  0.083333  0.083333     24.000000
  0.500000  0.083333  0.083333     12.000000
  0.111111  0.111111  0.083333     24.000000
  0.138889  0.111111  0.083333     48.000000
  0.166667  0.111111  0.083333     48.000000
  0.194444  0.111111  0.083333     48.000000
  0.222222  0.111111  0.083333     48.000000
  0.250000  0.111111  0.083333     48.000000
  0.277778  0.111111  0.083333     48.000000
  0.305556  0.111111  0.083333     48.000000
  0.333333  0.111111  0.083333     48.000000
  0.361111  0.111111  0.083333     48.000000
  0.388889  0.111111  0.083333     48.000000
  0.416667  0.111111  0.083333     48.000000
  0.444444  0.111111  0.083333     48.000000
  0.472222  0.111111  0.083333     48.000000
  0.500000  0.111111  0.083333     24.000000
  0.138889  0.138889  0.083333     24.000000
  0.166667  0.138889  0.083333     48.000000
  0.194444  0.138889  0.083333     48.000000
  0.222222  0.138889  0.083333     48.000000
  0.250000  0.138889  0.083333     48.000000
  0.277778  0.138889  0.083333     48.000000
  0.305556  0.138889  0.083333     48.000000
  0.333333  0.138889  0.083333     48.000000
  0.361111  0.138889  0.083333     48.000000
  0.388889  0.138889  0.083333     48.000000
  0.416667  0.138889  0.083333     48.000000
  0.444444  0.138889  0.083333     48.000000
  0.472222  0.138889  0.083333     48.000000
  0.500000  0.138889  0.083333     24.000000
  0.166667  0.166667  0.083333     24.000000
  0.194444  0.166667  0.083333     48.000000
  0.222222  0.166667  0.083333     48.000000
  0.250000  0.166667  0.083333     48.000000
  0.277778  0.166667  0.083333     48.000000
  0.305556  0.166667  0.083333     48.000000
  0.333333  0.166667  0.083333     48.000000
  0.361111  0.166667  0.083333     48.000000
  0.388889  0.166667  0.083333     48.000000
  0.416667  0.166667  0.083333     48.000000
  0.444444  0.166667  0.083333     48.000000
  0.472222  0.166667  0.083333     48.000000
  0.500000  0.166667  0.083333     24.000000
  0.194444  0.194444  0.083333     24.000000
  0.222222  0.194444  0.083333     48.000000
  0.250000  0.194444  0.083333     48.000000
  0.277778  0.194444  0.083333     48.000000
  0.305556  0.194444  0.083333     48.000000
  0.333333  0.194444  0.083333     48.000000
  0.361111  0.194444  0.083333     48.000000
  0.388889  0.194444  0.083333     48.000000
  0.416667  0.194444  0.083333     48.000000
  0.444444  0.194444  0.083333     48.000000
  0.472222  0.194444  0.083333     48.000000
  0.500000  0.194444  0.083333     24.000000
  0.222222  0.222222  0.083333     24.000000
  0.250000  0.222222  0.083333     48.000000
  0.277778  0.222222  0.083333     48.000000
  0.305556  0.222222  0.083333     48.000000
  0.333333  0.222222  0.083333     48.000000
  0.361111  0.222222  0.083333     48.000000
  0.388889  0.222222  0.083333     48.000000
  0.416667  0.222222  0.083333     48.000000
  0.444444  0.222222  0.083333     48.000000
  0.472222  0.222222  0.083333     48.000000
  0.500000  0.222222  0.083333     24.000000
  0.250000  0.250000  0.083333     24.000000
  0.277778  0.250000  0.083333     48.000000
  0.305556  0.250000  0.083333     48.000000
  0.333333  0.250000  0.083333     48.000000
  0.361111  0.250000  0.083333     48.000000
  0.388889  0.250000  0.083333     48.000000
  0.416667  0.250000  0.083333     48.000000
  0.444444  0.250000  0.083333     48.000000
  0.472222  0.250000  0.083333     48.000000
  0.500000  0.250000  0.083333     24.000000
  0.277778  0.277778  0.083333     24.000000
  0.305556  0.277778  0.083333     48.000000
  0.333333  0.277778  0.083333     48.000000
  0.361111  0.277778  0.083333     48.000000
  0.388889  0.277778  0.083333     48.000000
  0.416667  0.277778  0.083333     48.000000
  0.444444  0.277778  0.083333     48.000000
  0.472222  0.277778  0.083333     48.000000
  0.500000  0.277778  0.083333     24.000000
  0.305556  0.305556  0.083333     24.000000
  0.333333  0.305556  0.083333     48.000000
  0.361111  0.305556  0.083333     48.000000
  0.388889  0.305556  0.083333     48.000000
  0.416667  0.305556  0.083333     48.000000
  0.444444  0.305556  0.083333     48.000000
  0.472222  0.305556  0.083333     48.000000
  0.500000  0.305556  0.083333     24.000000
  0.333333  0.333333  0.083333     24.000000
  0.361111  0.333333  0.083333     48.000000
  0.388889  0.333333  0.083333     48.000000
  0.416667  0.333333  0.083333     48.000000
  0.444444  0.333333  0.083333     48.000000
  0.472222  0.333333  0.083333     48.000000
  0.500000  0.333333  0.083333     24.000000
  0.361111  0.361111  0.083333     24.000000
  0.388889  0.361111  0.083333     48.000000
  0.416667  0.361111  0.083333     48.000000
  0.444444  0.361111  0.083333     48.000000
  0.472222  0.361111  0.083333     48.000000
  0.500000  0.361111  0.083333     24.000000
  0.388889  0.388889  0.083333     24.000000
  0.416667  0.388889  0.083333     48.000000
  0.444444  0.388889  0.083333     48.000000
  0.472222  0.388889  0.083333     48.000000
  0.500000  0.388889  0.083333     24.000000
  0.416667  0.416667  0.083333     24.000000
  0.444444  0.416667  0.083333     48.000000
  0.472222  0.416667  0.083333     48.000000
  0.500000  0.416667  0.083333     24.000000
  0.444444  0.444444  0.083333     24.000000
  0.472222  0.444444  0.083333     48.000000
  0.500000  0.444444  0.083333     24.000000
  0.472222  0.472222  0.083333     24.000000
  0.500000  0.472222  0.083333     24.000000
  0.500000  0.500000  0.083333      6.000000
  0.111111  0.111111  0.111111      8.000000
  0.138889  0.111111  0.111111     24.000000
  0.166667  0.111111  0.111111     24.000000
  0.194444  0.111111  0.111111     24.000000
  0.222222  0.111111  0.111111     24.000000
  0.250000  0.111111  0.111111     24.000000
  0.277778  0.111111  0.111111     24.000000
  0.305556  0.111111  0.111111     24.000000
  0.333333  0.111111  0.111111     24.000000
  0.361111  0.111111  0.111111     24.000000
  0.388889  0.111111  0.111111     24.000000
  0.416667  0.111111  0.111111     24.000000
  0.444444  0.111111  0.111111     24.000000
  0.472222  0.111111  0.111111     24.000000
  0.500000  0.111111  0.111111     12.000000
  0.138889  0.138889  0.111111     24.000000
  0.166667  0.138889  0.111111     48.000000
  0.194444  0.138889  0.111111     48.000000
  0.222222  0.138889  0.111111     48.000000
  0.250000  0.138889  0.111111     48.000000
  0.277778  0.138889  0.111111     48.000000
  0.305556  0.138889  0.111111     48.000000
  0.333333  0.138889  0.111111     48.000000
  0.361111  0.138889  0.111111     48.000000
  0.388889  0.138889  0.111111     48.000000
  0.416667  0.138889  0.111111     48.000000
  0.444444  0.138889  0.111111     48.000000
  0.472222  0.138889  0.111111     48.000000
  0.500000  0.138889  0.111111     24.000000
  0.166667  0.166667  0.111111     24.000000
  0.194444  0.166667  0.111111     48.000000
  0.222222  0.166667  0.111111     48.000000
  0.250000  0.166667  0.111111     48.000000
  0.277778  0.166667  0.111111     48.000000
  0.305556  0.166667  0.111111     48.000000
  0.333333  0.166667  0.111111     48.000000
  0.361111  0.166667  0.111111     48.000000
  0.388889  0.166667  0.111111     48.000000
  0.416667  0.166667  0.111111     48.000000
  0.444444  0.166667  0.111111     48.000000
  0.472222  0.166667  0.111111     48.000000
  0.500000  0.166667  0.111111     24.000000
  0.194444  0.194444  0.111111     24.000000
  0.222222  0.194444  0.111111     48.000000
  0.250000  0.194444  0.111111     48.000000
  0.277778  0.194444  0.111111     48.000000
  0.305556  0.194444  0.111111     48.000000
  0.333333  0.194444  0.111111     48.000000
  0.361111  0.194444  0.111111     48.000000
  0.388889  0.194444  0.111111     48.000000
  0.416667  0.194444  0.111111     48.000000
  0.444444  0.194444  0.111111     48.000000
  0.472222  0.194444  0.111111     48.000000
  0.500000  0.194444  0.111111     24.000000
  0.222222  0.222222  0.111111     24.000000
  0.250000  0.222222  0.111111     48.000000
  0.277778  0.222222  0.111111     48.000000
  0.305556  0.222222  0.111111     48.000000
  0.333333  0.222222  0.111111     48.000000
  0.361111  0.222222  0.111111     48.000000
  0.388889  0.222222  0.111111     48.000000
  0.416667  0.222222  0.111111     48.000000
  0.444444  0.222222  0.111111     48.000000
  0.472222  0.222222  0.111111     48.000000
  0.500000  0.222222  0.111111     24.000000
  0.250000  0.250000  0.111111     24.000000
  0.277778  0.250000  0.111111     48.000000
  0.305556  0.250000  0.111111     48.000000
  0.333333  0.250000  0.111111     48.000000
  0.361111  0.250000  0.111111     48.000000
  0.388889  0.250000  0.111111     48.000000
  0.416667  0.250000  0.111111     48.000000
  0.444444  0.250000  0.111111     48.000000
  0.472222  0.250000  0.111111     48.000000
  0.500000  0.250000  0.111111     24.000000
  0.277778  0.277778  0.111111     24.000000
  0.305556  0.277778  0.111111     48.000000
  0.333333  0.277778  0.111111     48.000000
  0.361111  0.277778  0.111111     48.000000
  0.388889  0.277778  0.111111     48.000000
  0.416667  0.277778  0.111111     48.000000
  0.444444  0.277778  0.111111     48.000000
  0.472222  0.277778  0.111111     48.000000
  0.500000  0.277778  0.111111     24.000000
  0.305556  0.305556  0.111111     24.000000
  0.333333  0.305556  0.111111     48.000000
  0.361111  0.305556  0.111111     48.000000
  0.388889  0.305556  0.111111     48.000000
  0.416667  0.305556  0.111111     48.000000
  0.444444  0.305556  0.111111     48.000000
  0.472222  0.305556  0.111111     48.000000
  0.500000  0.305556  0.111111     24.000000
  0.333333  0.333333  0.111111     24.000000
  0.361111  0.333333  0.111111     48.000000
  0.388889  0.333333  0.111111     48.000000
  0.416667  0.333333  0.111111     48.000000
  0.444444  0.333333  0.111111     48.000000
  0.472222  0.333333  0.111111     48.000000
  0.500000  0.333333  0.111111     24.000000
  0.361111  0.361111  0.111111     24.000000
  0.388889  0.361111  0.111111     48.000000
  0.416667  0.361111  0.111111     48.000000
  0.444444  0.361111  0.111111     48.000000
  0.472222  0.361111  0.111111     48.000000
  0.500000  0.361111  0.111111     24.000000
  0.388889  0.388889  0.111111     24.000000
  0.416667  0.388889  0.111111     48.000000
  0.444444  0.388889  0.111111     48.000000
  0.472222  0.388889  0.111111     48.000000
  0.500000  0.388889  0.111111     24.000000
  0.416667  0.416667  0.111111     24.000000
  0.444444  0.416667  0.111111     48.000000
  0.472222  0.416667  0.111111     48.000000
  0.500000  0.416667  0.111111     24.000000
  0.444444  0.444444  0.111111     24.000000
  0.472222  0.444444  0.111111     48.000000
  0.500000  0.444444  0.111111     24.000000
  0.472222  0.472222  0.111111     24.000000
  0.500000  0.472222  0.111111     24.000000
  0.500000  0.500000  0.111111      6.000000
  0.138889  0.138889  0.138889      8.000000
  0.166667  0.138889  0.138889     24.000000
  0.194444  0.138889  0.138889     24.000000
  0.222222  0.138889  0.138889     24.000000
  0.250000  0.138889  0.138889     24.000000
  0.277778  0.138889  0.138889     24.000000
  0.305556  0.138889  0.138889     24.000000
  0.333333  0.138889  0.138889     24.000000
  0.361111  0.138889  0.138889     24.000000
  0.388889  0.138889  0.138889     24.000000
  0.416667  0.138889  0.138889     24.000000
  0.444444  0.138889  0.138889     24.000000
  0.472222  0.138889  0.138889     24.000000
  0.500000  0.138889  0.138889     12.000000
  0.166667  0.166667  0.138889     24.000000
  0.194444  0.166667  0.138889     48.000000
  0.222222  0.166667  0.138889     48.000000
  0.250000  0.166667  0.138889     48.000000
  0.277778  0.166667  0.138889     48.000000
  0.305556  0.166667  0.138889     48.000000
  0.333333  0.166667  0.138889     48.000000
  0.361111  0.166667  0.138889     48.000000
  0.388889  0.166667  0.138889     48.000000
  0.416667  0.166667  0.138889     48.000000
  0.444444  0.166667  0.138889     48.000000
  0.472222  0.166667  0.138889     48.000000
  0.500000  0.166667  0.138889     24.000000
  0.194444  0.194444  0.138889     24.000000
  0.222222  0.194444  0.138889     48.000000
  0.250000  0.194444  0.138889     48.000000
  0.277778  0.194444  0.138889     48.000000
  0.305556  0.194444  0.138889     48.000000
  0.333333  0.194444  0.138889     48.000000
  0.361111  0.194444  0.138889     48.000000
  0.388889  0.194444  0.138889     48.000000
  0.416667  0.194444  0.138889     48.000000
  0.444444  0.194444  0.138889     48.000000
  0.472222  0.194444  0.138889     48.000000
  0.500000  0.194444  0.138889     24.000000
  0.222222  0.222222  0.138889     24.000000
  0.250000  0.222222  0.138889     48.000000
  0.277778  0.222222  0.138889     48.000000
  0.305556  0.222222  0.138889     48.000000
  0.333333  0.222222  0.138889     48.000000
  0.361111  0.222222  0.138889     48.000000
  0.388889  0.222222  0.138889     48.000000
  0.416667  0.222222  0.138889     48.000000
  0.444444  0.222222  0.138889     48.000000
  0.472222  0.222222  0.138889     48.000000
  0.500000  0.222222  0.138889     24.000000
  0.250000  0.250000  0.138889     24.000000
  0.277778  0.250000  0.138889     48.000000
  0.305556  0.250000  0.138889     48.000000
  0.333333  0.250000  0.138889     48.000000
  0.361111  0.250000  0.138889     48.000000
  0.388889  0.250000  0.138889     48.000000
  0.416667  0.250000  0.138889     48.000000
  0.444444  0.250000  0.138889     48.000000
  0.472222  0.250000  0.138889     48.000000
  0.500000  0.250000  0.138889     24.000000
  0.277778  0.277778  0.138889     24.000000
  0.305556  0.277778  0.138889     48.000000
  0.333333  0.277778  0.138889     48.000000
  0.361111  0.277778  0.138889     48.000000
  0.388889  0.277778  0.138889     48.000000
  0.416667  0.277778  0.138889     48.000000
  0.444444  0.277778  0.138889     48.000000
  0.472222  0.277778  0.138889     48.000000
  0.500000  0.277778  0.138889     24.000000
  0.305556  0.305556  0.138889     24.000000
  0.333333  0.305556  0.138889     48.000000
  0.361111  0.305556  0.138889     48.000000
  0.388889  0.305556  0.138889     48.000000
  0.416667  0.305556  0.138889     48.000000
  0.444444  0.305556  0.138889     48.000000
  0.472222  0.305556  0.138889     48.000000
  0.500000  0.305556  0.138889     24.000000
  0.333333  0.333333  0.138889     24.000000
  0.361111  0.333333  0.138889     48.000000
  0.388889  0.333333  0.138889     48.000000
  0.416667  0.333333  0.138889     48.000000
  0.444444  0.333333  0.138889     48.000000
  0.472222  0.333333  0.138889     48.000000
  0.500000  0.333333  0.138889     24.000000
  0.361111  0.361111  0.138889     24.000000
  0.388889  0.361111  0.138889     48.000000
  0.416667  0.361111  0.138889     48.000000
  0.444444  0.361111  0.138889     48.000000
  0.472222  0.361111  0.138889     48.000000
  0.500000  0.361111  0.138889     24.000000
  0.388889  0.388889  0.138889     24.000000
  0.416667  0.388889  0.138889     48.000000
  0.444444  0.388889  0.138889     48.000000
  0.472222  0.388889  0.138889     48.000000
  0.500000  0.388889  0.138889     24.000000
  0.416667  0.416667  0.138889     24.000000
  0.444444  0.416667  0.138889     48.000000
  0.472222  0.416667  0.138889     48.000000
  0.500000  0.416667  0.138889     24.000000
  0.444444  0.444444  0.138889     24.000000
  0.472222  0.444444  0.138889     48.000000
  0.500000  0.444444  0.138889     24.000000
  0.472222  0.472222  0.138889     24.000000
  0.500000  0.472222  0.138889     24.000000
  0.500000  0.500000  0.138889      6.000000
  0.166667  0.166667  0.166667      8.000000
  0.194444  0.166667  0.166667     24.000000
  0.222222  0.166667  0.166667     24.000000
  0.250000  0.166667  0.166667     24.000000
  0.277778  0.166667  0.166667     24.000000
  0.305556  0.166667  0.166667     24.000000
  0.333333  0.166667  0.166667     24.000000
  0.361111  0.166667  0.166667     24.000000
  0.388889  0.166667  0.166667     24.000000
  0.416667  0.166667  0.166667     24.000000
  0.444444  0.166667  0.166667     24.000000
  0.472222  0.166667  0.166667     24.000000
  0.500000  0.166667  0.166667     12.000000
  0.194444  0.194444  0.166667     24.000000
  0.222222  0.194444  0.166667     48.000000
  0.250000  0.194444  0.166667     48.000000
  0.277778  0.194444  0.166667     48.000000
  0.305556  0.194444  0.166667     48.000000
  0.333333  0.194444  0.166667     48.000000
  0.361111  0.194444  0.166667     48.000000
  0.388889  0.194444  0.166667     48.000000
  0.416667  0.194444  0.166667     48.000000
  0.444444  0.194444  0.166667     48.000000
  0.472222  0.194444  0.166667     48.000000
  0.500000  0.194444  0.166667     24.000000
  0.222222  0.222222  0.166667     24.000000
  0.250000  0.222222  0.166667     48.000000
  0.277778  0.222222  0.166667     48.000000
  0.305556  0.222222  0.166667     48.000000
  0.333333  0.222222  0.166667     48.000000
  0.361111  0.222222  0.166667     48.000000
  0.388889  0.222222  0.166667     48.000000
  0.416667  0.222222  0.166667     48.000000
  0.444444  0.222222  0.166667     48.000000
  0.472222  0.222222  0.166667     48.000000
  0.500000  0.222222  0.166667     24.000000
  0.250000  0.250000  0.166667     24.000000
  0.277778  0.250000  0.166667     48.000000
  0.305556  0.250000  0.166667     48.000000
  0.333333  0.250000  0.166667     48.000000
  0.361111  0.250000  0.166667     48.000000
  0.388889  0.250000  0.166667     48.000000
  0.416667  0.250000  0.166667     48.000000
  0.444444  0.250000  0.166667     48.000000
  0.472222  0.250000  0.166667     48.000000
  0.500000  0.250000  0.166667     24.000000
  0.277778  0.277778  0.166667     24.000000
  0.305556  0.277778  0.166667     48.000000
  0.333333  0.277778  0.166667     48.000000
  0.361111  0.277778  0.166667     48.000000
  0.388889  0.277778  0.166667     48.000000
  0.416667  0.277778  0.166667     48.000000
  0.444444  0.277778  0.166667     48.000000
  0.472222  0.277778  0.166667     48.000000
  0.500000  0.277778  0.166667     24.000000
  0.305556  0.305556  0.166667     24.000000
  0.333333  0.305556  0.166667     48.000000
  0.361111  0.305556  0.166667     48.000000
  0.388889  0.305556  0.166667     48.000000
  0.416667  0.305556  0.166667     48.000000
  0.444444  0.305556  0.166667     48.000000
  0.472222  0.305556  0.166667     48.000000
  0.500000  0.305556  0.166667     24.000000
  0.333333  0.333333  0.166667     24.000000
  0.361111  0.333333  0.166667     48.000000
  0.388889  0.333333  0.166667     48.000000
  0.416667  0.333333  0.166667     48.000000
  0.444444  0.333333  0.166667     48.000000
  0.472222  0.333333  0.166667     48.000000
  0.500000  0.333333  0.166667     24.000000
  0.361111  0.361111  0.166667     24.000000
  0.388889  0.361111  0.166667     48.000000
  0.416667  0.361111  0.166667     48.000000
  0.444444  0.361111  0.166667     48.000000
  0.472222  0.361111  0.166667     48.000000
  0.500000  0.361111  0.166667     24.000000
  0.388889  0.388889  0.166667     24.000000
  0.416667  0.388889  0.166667     48.000000
  0.444444  0.388889  0.166667     48.000000
  0.472222  0.388889  0.166667     48.000000
  0.500000  0.388889  0.166667     24.000000
  0.416667  0.416667  0.166667     24.000000
  0.444444  0.416667  0.166667     48.000000
  0.472222  0.416667  0.166667     48.000000
  0.500000  0.416667  0.166667     24.000000
  0.444444  0.444444  0.166667     24.000000
  0.472222  0.444444  0.166667     48.000000
  0.500000  0.444444  0.166667     24.000000
  0.472222  0.472222  0.166667     24.000000
  0.500000  0.472222  0.166667     24.000000
  0.500000  0.500000  0.166667      6.000000
  0.194444  0.194444  0.194444      8.000000
  0.222222  0.194444  0.194444     24.000000
  0.250000  0.194444  0.194444     24.000000
  0.277778  0.194444  0.194444     24.000000
  0.305556  0.194444  0.194444     24.000000
  0.333333  0.194444  0.194444     24.000000
  0.361111  0.194444  0.194444     24.000000
  0.388889  0.194444  0.194444     24.000000
  0.416667  0.194444  0.194444     24.000000
  0.444444  0.194444  0.194444     24.000000
  0.472222  0.194444  0.194444     24.000000
  0.500000  0.194444  0.194444     12.000000
  0.222222  0.222222  0.194444     24.000000
  0.250000  0.222222  0.194444     48.000000
  0.277778  0.222222  0.194444     48.000000
  0.305556  0.222222  0.194444     48.000000
  0.333333  0.222222  0.194444     48.000000
  0.361111  0.222222  0.194444     48.000000
  0.388889  0.222222  0.194444     48.000000
  0.416667  0.222222  0.194444     48.000000
  0.444444  0.222222  0.194444     48.000000
  0.472222  0.222222  0.194444     48.000000
  0.500000  0.222222  0.194444     24.000000
  0.250000  0.250000  0.194444     24.000000
  0.277778  0.250000  0.194444     48.000000
  0.305556  0.250000  0.194444     48.000000
  0.333333  0.250000  0.194444     48.000000
  0.361111  0.250000  0.194444     48.000000
  0.388889  0.250000  0.194444     48.000000
  0.416667  0.250000  0.194444     48.000000
  0.444444  0.250000  0.194444     48.000000
  0.472222  0.250000  0.194444     48.000000
  0.500000  0.250000  0.194444     24.000000
  0.277778  0.277778  0.194444     24.000000
  0.305556  0.277778  0.194444     48.000000
  0.333333  0.277778  0.194444     48.000000
  0.361111  0.277778  0.194444     48.000000
  0.388889  0.277778  0.194444     48.000000
  0.416667  0.277778  0.194444     48.000000
  0.444444  0.277778  0.194444     48.000000
  0.472222  0.277778  0.194444     48.000000
  0.500000  0.277778  0.194444     24.000000
  0.305556  0.305556  0.194444     24.000000
  0.333333  0.305556  0.194444     48.000000
  0.361111  0.305556  0.194444     48.000000
  0.388889  0.305556  0.194444     48.000000
  0.416667  0.305556  0.194444     48.000000
  0.444444  0.305556  0.194444     48.000000
  0.472222  0.305556  0.194444     48.000000
  0.500000  0.305556  0.194444     24.000000
  0.333333  0.333333  0.194444     24.000000
  0.361111  0.333333  0.194444     48.000000
  0.388889  0.333333  0.194444     48.000000
  0.416667  0.333333  0.194444     48.000000
  0.444444  0.333333  0.194444     48.000000
  0.472222  0.333333  0.194444     48.000000
  0.500000  0.333333  0.194444     24.000000
  0.361111  0.361111  0.194444     24.000000
  0.388889  0.361111  0.194444     48.000000
  0.416667  0.361111  0.194444     48.000000
  0.444444  0.361111  0.194444     48.000000
  0.472222  0.361111  0.194444     48.000000
  0.500000  0.361111  0.194444     24.000000
  0.388889  0.388889  0.194444     24.000000
  0.416667  0.388889  0.194444     48.000000
  0.444444  0.388889  0.194444     48.000000
  0.472222  0.388889  0.194444     48.000000
  0.500000  0.388889  0.194444     24.000000
  0.416667  0.416667  0.194444     24.000000
  0.444444  0.416667  0.194444     48.000000
  0.472222  0.416667  0.194444     48.000000
  0.500000  0.416667  0.194444     24.000000
  0.444444  0.444444  0.194444     24.000000
  0.472222  0.444444  0.194444     48.000000
  0.500000  0.444444  0.194444     24.000000
  0.472222  0.472222  0.194444     24.000000
  0.500000  0.472222  0.194444     24.000000
  0.500000  0.500000  0.194444      6.000000
  0.222222  0.222222  0.222222      8.000000
  0.250000  0.222222  0.222222     24.000000
  0.277778  0.222222  0.222222     24.000000
  0.305556  0.222222  0.222222     24.000000
  0.333333  0.222222  0.222222     24.000000
  0.361111  0.222222  0.222222     24.000000
  0.388889  0.222222  0.222222     24.000000
  0.416667  0.222222  0.222222     24.000000
  0.444444  0.222222  0.222222     24.000000
  0.472222  0.222222  0.222222     24.000000
  0.500000  0.222222  0.222222     12.000000
  0.250000  0.250000  0.222222     24.000000
  0.277778  0.250000  0.222222     48.000000
  0.305556  0.250000  0.222222     48.000000
  0.333333  0.250000  0.222222     48.000000
  0.361111  0.250000  0.222222     48.000000
  0.388889  0.250000  0.222222     48.000000
  0.416667  0.250000  0.222222     48.000000
  0.444444  0.250000  0.222222     48.000000
  0.472222  0.250000  0.222222     48.000000
  0.500000  0.250000  0.222222     24.000000
  0.277778  0.277778  0.222222     24.000000
  0.305556  0.277778  0.222222     48.000000
  0.333333  0.277778  0.222222     48.000000
  0.361111  0.277778  0.222222     48.000000
  0.388889  0.277778  0.222222     48.000000
  0.416667  0.277778  0.222222     48.000000
  0.444444  0.277778  0.222222     48.000000
  0.472222  0.277778  0.222222     48.000000
  0.500000  0.277778  0.222222     24.000000
  0.305556  0.305556  0.222222     24.000000
  0.333333  0.305556  0.222222     48.000000
  0.361111  0.305556  0.222222     48.000000
  0.388889  0.305556  0.222222     48.000000
  0.416667  0.305556  0.222222     48.000000
  0.444444  0.305556  0.222222     48.000000
  0.472222  0.305556  0.222222     48.000000
  0.500000  0.305556  0.222222     24.000000
  0.333333  0.333333  0.222222     24.000000
  0.361111  0.333333  0.222222     48.000000
  0.388889  0.333333  0.222222     48.000000
  0.416667  0.333333  0.222222     48.000000
  0.444444  0.333333  0.222222     48.000000
  0.472222  0.333333  0.222222     48.000000
  0.500000  0.333333  0.222222     24.000000
  0.361111  0.361111  0.222222     24.000000
  0.388889  0.361111  0.222222     48.000000
  0.416667  0.361111  0.222222     48.000000
  0.444444  0.361111  0.222222     48.000000
  0.472222  0.361111  0.222222     48.000000
  0.500000  0.361111  0.222222     24.000000
  0.388889  0.388889  0.222222     24.000000
  0.416667  0.388889  0.222222     48.000000
  0.444444  0.388889  0.222222     48.000000
  0.472222  0.388889  0.222222     48.000000
  0.500000  0.388889  0.222222     24.000000
  0.416667  0.416667  0.222222     24.000000
  0.444444  0.416667  0.222222     48.000000
  0.472222  0.416667  0.222222     48.000000
  0.500000  0.416667  0.222222     24.000000
  0.444444  0.444444  0.222222     24.000000
  0.472222  0.444444  0.222222     48.000000
  0.500000  0.444444  0.222222     24.000000
  0.472222  0.472222  0.222222     24.000000
  0.500000  0.472222  0.222222     24.000000
  0.500000  0.500000  0.222222      6.000000
  0.250000  0.250000  0.250000      8.000000
  0.277778  0.250000  0.250000     24.000000
  0.305556  0.250000  0.250000     24.000000
  0.333333  0.250000  0.250000     24.000000
  0.361111  0.250000  0.250000     24.000000
  0.388889  0.250000  0.250000     24.000000
  0.416667  0.250000  0.250000     24.000000
  0.444444  0.250000  0.250000     24.000000
  0.472222  0.250000  0.250000     24.000000
  0.500000  0.250000  0.250000     12.000000
  0.277778  0.277778  0.250000     24.000000
  0.305556  0.277778  0.250000     48.000000
  0.333333  0.277778  0.250000     48.000000
  0.361111  0.277778  0.250000     48.000000
  0.388889  0.277778  0.250000     48.000000
  0.416667  0.277778  0.250000     48.000000
  0.444444  0.277778  0.250000     48.000000
  0.472222  0.277778  0.250000     48.000000
  0.500000  0.277778  0.250000     24.000000
  0.305556  0.305556  0.250000     24.000000
  0.333333  0.305556  0.250000     48.000000
  0.361111  0.305556  0.250000     48.000000
  0.388889  0.305556  0.250000     48.000000
  0.416667  0.305556  0.250000     48.000000
  0.444444  0.305556  0.250000     48.000000
  0.472222  0.305556  0.250000     48.000000
  0.500000  0.305556  0.250000     24.000000
  0.333333  0.333333  0.250000     24.000000
  0.361111  0.333333  0.250000     48.000000
  0.388889  0.333333  0.250000     48.000000
  0.416667  0.333333  0.250000     48.000000
  0.444444  0.333333  0.250000     48.000000
  0.472222  0.333333  0.250000     48.000000
  0.500000  0.333333  0.250000     24.000000
  0.361111  0.361111  0.250000     24.000000
  0.388889  0.361111  0.250000     48.000000
  0.416667  0.361111  0.250000     48.000000
  0.444444  0.361111  0.250000     48.000000
  0.472222  0.361111  0.250000     48.000000
  0.500000  0.361111  0.250000     24.000000
  0.388889  0.388889  0.250000     24.000000
  0.416667  0.388889  0.250000     48.000000
  0.444444  0.388889  0.250000     48.000000
  0.472222  0.388889  0.250000     48.000000
  0.500000  0.388889  0.250000     24.000000
  0.416667  0.416667  0.250000     24.000000
  0.444444  0.416667  0.250000     48.000000
  0.472222  0.416667  0.250000     48.000000
  0.500000  0.416667  0.250000     24.000000
  0.444444  0.444444  0.250000     24.000000
  0.472222  0.444444  0.250000     48.000000
  0.500000  0.444444  0.250000     24.000000
  0.472222  0.472222  0.250000     24.000000
  0.500000  0.472222  0.250000     24.000000
  0.500000  0.500000  0.250000      6.000000
  0.277778  0.277778  0.277778      8.000000
  0.305556  0.277778  0.277778     24.000000
  0.333333  0.277778  0.277778     24.000000
  0.361111  0.277778  0.277778     24.000000
  0.388889  0.277778  0.277778     24.000000
  0.416667  0.277778  0.277778     24.000000
  0.444444  0.277778  0.277778     24.000000
  0.472222  0.277778  0.277778     24.000000
  0.500000  0.277778  0.277778     12.000000
  0.305556  0.305556  0.277778     24.000000
  0.333333  0.305556  0.277778     48.000000
  0.361111  0.305556  0.277778     48.000000
  0.388889  0.305556  0.277778     48.000000
  0.416667  0.305556  0.277778     48.000000
  0.444444  0.305556  0.277778     48.000000
  0.472222  0.305556  0.277778     48.000000
  0.500000  0.305556  0.277778     24.000000
  0.333333  0.333333  0.277778     24.000000
  0.361111  0.333333  0.277778     48.000000
  0.388889  0.333333  0.277778     48.000000
  0.416667  0.333333  0.277778     48.000000
  0.444444  0.333333  0.277778     48.000000
  0.472222  0.333333  0.277778     48.000000
  0.500000  0.333333  0.277778     24.000000
  0.361111  0.361111  0.277778     24.000000
  0.388889  0.361111  0.277778     48.000000
  0.416667  0.361111  0.277778     48.000000
  0.444444  0.361111  0.277778     48.000000
  0.472222  0.361111  0.277778     48.000000
  0.500000  0.361111  0.277778     24.000000
  0.388889  0.388889  0.277778     24.000000
  0.416667  0.388889  0.277778     48.000000
  0.444444  0.388889  0.277778     48.000000
  0.472222  0.388889  0.277778     48.000000
  0.500000  0.388889  0.277778     24.000000
  0.416667  0.416667  0.277778     24.000000
  0.444444  0.416667  0.277778     48.000000
  0.472222  0.416667  0.277778     48.000000
  0.500000  0.416667  0.277778     24.000000
  0.444444  0.444444  0.277778     24.000000
  0.472222  0.444444  0.277778     48.000000
  0.500000  0.444444  0.277778     24.000000
  0.472222  0.472222  0.277778     24.000000
  0.500000  0.472222  0.277778     24.000000
  0.500000  0.500000  0.277778      6.000000
  0.305556  0.305556  0.305556      8.000000
  0.333333  0.305556  0.305556     24.000000
  0.361111  0.305556  0.305556     24.000000
  0.388889  0.305556  0.305556     24.000000
  0.416667  0.305556  0.305556     24.000000
  0.444444  0.305556  0.305556     24.000000
  0.472222  0.305556  0.305556     24.000000
  0.500000  0.305556  0.305556     12.000000
  0.333333  0.333333  0.305556     24.000000
  0.361111  0.333333  0.305556     48.000000
  0.388889  0.333333  0.305556     48.000000
  0.416667  0.333333  0.305556     48.000000
  0.444444  0.333333  0.305556     48.000000
  0.472222  0.333333  0.305556     48.000000
  0.500000  0.333333  0.305556     24.000000
  0.361111  0.361111  0.305556     24.000000
  0.388889  0.361111  0.305556     48.000000
  0.416667  0.361111  0.305556     48.000000
  0.444444  0.361111  0.305556     48.000000
  0.472222  0.361111  0.305556     48.000000
  0.500000  0.361111  0.305556     24.000000
  0.388889  0.388889  0.305556     24.000000
  0.416667  0.388889  0.305556     48.000000
  0.444444  0.388889  0.305556     48.000000
  0.472222  0.388889  0.305556     48.000000
  0.500000  0.388889  0.305556     24.000000
  0.416667  0.416667  0.305556     24.000000
  0.444444  0.416667  0.305556     48.000000
  0.472222  0.416667  0.305556     48.000000
  0.500000  0.416667  0.305556     24.000000
  0.444444  0.444444  0.305556     24.000000
  0.472222  0.444444  0.305556     48.000000
  0.500000  0.444444  0.305556     24.000000
  0.472222  0.472222  0.305556     24.000000
  0.500000  0.472222  0.305556     24.000000
  0.500000  0.500000  0.305556      6.000000
  0.333333  0.333333  0.333333      8.000000
  0.361111  0.333333  0.333333     24.000000
  0.388889  0.333333  0.333333     24.000000
  0.416667  0.333333  0.333333     24.000000
  0.444444  0.333333  0.333333     24.000000
  0.472222  0.333333  0.333333     24.000000
  0.500000  0.333333  0.333333     12.000000
  0.361111  0.361111  0.333333     24.000000
  0.388889  0.361111  0.333333     48.000000
  0.416667  0.361111  0.333333     48.000000
  0.444444  0.361111  0.333333     48.000000
  0.472222  0.361111  0.333333     48.000000
  0.500000  0.361111  0.333333     24.000000
  0.388889  0.388889  0.333333     24.000000
  0.416667  0.388889  0.333333     48.000000
  0.444444  0.388889  0.333333     48.000000
  0.472222  0.388889  0.333333     48.000000
  0.500000  0.388889  0.333333     24.000000
  0.416667  0.416667  0.333333     24.000000
  0.444444  0.416667  0.333333     48.000000
  0.472222  0.416667  0.333333     48.000000
  0.500000  0.416667  0.333333     24.000000
  0.444444  0.444444  0.333333     24.000000
  0.472222  0.444444  0.333333     48.000000
  0.500000  0.444444  0.333333     24.000000
  0.472222  0.472222  0.333333     24.000000
  0.500000  0.472222  0.333333     24.000000
  0.500000  0.500000  0.333333      6.000000
  0.361111  0.361111  0.361111      8.000000
  0.388889  0.361111  0.361111     24.000000
  0.416667  0.361111  0.361111     24.000000
  0.444444  0.361111  0.361111     24.000000
  0.472222  0.361111  0.361111     24.000000
  0.500000  0.361111  0.361111     12.000000
  0.388889  0.388889  0.361111     24.000000
  0.416667  0.388889  0.361111     48.000000
  0.444444  0.388889  0.361111     48.000000
  0.472222  0.388889  0.361111     48.000000
  0.500000  0.388889  0.361111     24.000000
  0.416667  0.416667  0.361111     24.000000
  0.444444  0.416667  0.361111     48.000000
  0.472222  0.416667  0.361111     48.000000
  0.500000  0.416667  0.361111     24.000000
  0.444444  0.444444  0.361111     24.000000
  0.472222  0.444444  0.361111     48.000000
  0.500000  0.444444  0.361111     24.000000
  0.472222  0.472222  0.361111     24.000000
  0.500000  0.472222  0.361111     24.000000
  0.500000  0.500000  0.361111      6.000000
  0.388889  0.388889  0.388889      8.000000
  0.416667  0.388889  0.388889     24.000000
  0.444444  0.388889  0.388889     24.000000
  0.472222  0.388889  0.388889     24.000000
  0.500000  0.388889  0.388889     12.000000
  0.416667  0.416667  0.388889     24.000000
  0.444444  0.416667  0.388889     48.000000
  0.472222  0.416667  0.388889     48.000000
  0.500000  0.416667  0.388889     24.000000
  0.444444  0.444444  0.388889     24.000000
  0.472222  0.444444  0.388889     48.000000
  0.500000  0.444444  0.388889     24.000000
  0.472222  0.472222  0.388889     24.000000
  0.500000  0.472222  0.388889     24.000000
  0.500000  0.500000  0.388889      6.000000
  0.416667  0.416667  0.416667      8.000000
  0.444444  0.416667  0.416667     24.000000
  0.472222  0.416667  0.416667     24.000000
  0.500000  0.416667  0.416667     12.000000
  0.444444  0.444444  0.416667     24.000000
  0.472222  0.444444  0.416667     48.000000
  0.500000  0.444444  0.416667     24.000000
  0.472222  0.472222  0.416667     24.000000
  0.500000  0.472222  0.416667     24.000000
  0.500000  0.500000  0.416667      6.000000
  0.444444  0.444444  0.444444      8.000000
  0.472222  0.444444  0.444444     24.000000
  0.500000  0.444444  0.444444     12.000000
  0.472222  0.472222  0.444444     24.000000
  0.500000  0.472222  0.444444     24.000000
  0.500000  0.500000  0.444444      6.000000
  0.472222  0.472222  0.472222      8.000000
  0.500000  0.472222  0.472222     12.000000
  0.500000  0.500000  0.472222      6.000000
  0.500000  0.500000  0.500000      1.000000
 
 Following cartesian coordinates:
            Coordinates               Weight
  0.000000  0.000000  0.000000      1.000000
  0.006656  0.000000  0.000000      6.000000
  0.013312  0.000000  0.000000      6.000000
  0.019967  0.000000  0.000000      6.000000
  0.026623  0.000000  0.000000      6.000000
  0.033279  0.000000  0.000000      6.000000
  0.039935  0.000000  0.000000      6.000000
  0.046591  0.000000  0.000000      6.000000
  0.053247  0.000000  0.000000      6.000000
  0.059902  0.000000  0.000000      6.000000
  0.066558  0.000000  0.000000      6.000000
  0.073214  0.000000  0.000000      6.000000
  0.079870  0.000000  0.000000      6.000000
  0.086526  0.000000  0.000000      6.000000
  0.093181  0.000000  0.000000      6.000000
  0.099837  0.000000  0.000000      6.000000
  0.106493  0.000000  0.000000      6.000000
  0.113149  0.000000  0.000000      6.000000
  0.119805  0.000000  0.000000      3.000000
  0.006656  0.006656  0.000000     12.000000
  0.013312  0.006656  0.000000     24.000000
  0.019967  0.006656  0.000000     24.000000
  0.026623  0.006656  0.000000     24.000000
  0.033279  0.006656  0.000000     24.000000
  0.039935  0.006656  0.000000     24.000000
  0.046591  0.006656  0.000000     24.000000
  0.053247  0.006656  0.000000     24.000000
  0.059902  0.006656  0.000000     24.000000
  0.066558  0.006656  0.000000     24.000000
  0.073214  0.006656  0.000000     24.000000
  0.079870  0.006656  0.000000     24.000000
  0.086526  0.006656  0.000000     24.000000
  0.093181  0.006656  0.000000     24.000000
  0.099837  0.006656  0.000000     24.000000
  0.106493  0.006656  0.000000     24.000000
  0.113149  0.006656  0.000000     24.000000
  0.119805  0.006656  0.000000     12.000000
  0.013312  0.013312  0.000000     12.000000
  0.019967  0.013312  0.000000     24.000000
  0.026623  0.013312  0.000000     24.000000
  0.033279  0.013312  0.000000     24.000000
  0.039935  0.013312  0.000000     24.000000
  0.046591  0.013312  0.000000     24.000000
  0.053247  0.013312  0.000000     24.000000
  0.059902  0.013312  0.000000     24.000000
  0.066558  0.013312  0.000000     24.000000
  0.073214  0.013312  0.000000     24.000000
  0.079870  0.013312  0.000000     24.000000
  0.086526  0.013312  0.000000     24.000000
  0.093181  0.013312  0.000000     24.000000
  0.099837  0.013312  0.000000     24.000000
  0.106493  0.013312  0.000000     24.000000
  0.113149  0.013312  0.000000     24.000000
  0.119805  0.013312  0.000000     12.000000
  0.019967  0.019967  0.000000     12.000000
  0.026623  0.019967  0.000000     24.000000
  0.033279  0.019967  0.000000     24.000000
  0.039935  0.019967  0.000000     24.000000
  0.046591  0.019967  0.000000     24.000000
  0.053247  0.019967  0.000000     24.000000
  0.059902  0.019967  0.000000     24.000000
  0.066558  0.019967  0.000000     24.000000
  0.073214  0.019967  0.000000     24.000000
  0.079870  0.019967  0.000000     24.000000
  0.086526  0.019967  0.000000     24.000000
  0.093181  0.019967  0.000000     24.000000
  0.099837  0.019967  0.000000     24.000000
  0.106493  0.019967  0.000000     24.000000
  0.113149  0.019967  0.000000     24.000000
  0.119805  0.019967  0.000000     12.000000
  0.026623  0.026623  0.000000     12.000000
  0.033279  0.026623  0.000000     24.000000
  0.039935  0.026623  0.000000     24.000000
  0.046591  0.026623  0.000000     24.000000
  0.053247  0.026623  0.000000     24.000000
  0.059902  0.026623  0.000000     24.000000
  0.066558  0.026623  0.000000     24.000000
  0.073214  0.026623  0.000000     24.000000
  0.079870  0.026623  0.000000     24.000000
  0.086526  0.026623  0.000000     24.000000
  0.093181  0.026623  0.000000     24.000000
  0.099837  0.026623  0.000000     24.000000
  0.106493  0.026623  0.000000     24.000000
  0.113149  0.026623  0.000000     24.000000
  0.119805  0.026623  0.000000     12.000000
  0.033279  0.033279  0.000000     12.000000
  0.039935  0.033279  0.000000     24.000000
  0.046591  0.033279  0.000000     24.000000
  0.053247  0.033279  0.000000     24.000000
  0.059902  0.033279  0.000000     24.000000
  0.066558  0.033279  0.000000     24.000000
  0.073214  0.033279  0.000000     24.000000
  0.079870  0.033279  0.000000     24.000000
  0.086526  0.033279  0.000000     24.000000
  0.093181  0.033279  0.000000     24.000000
  0.099837  0.033279  0.000000     24.000000
  0.106493  0.033279  0.000000     24.000000
  0.113149  0.033279  0.000000     24.000000
  0.119805  0.033279  0.000000     12.000000
  0.039935  0.039935  0.000000     12.000000
  0.046591  0.039935  0.000000     24.000000
  0.053247  0.039935  0.000000     24.000000
  0.059902  0.039935  0.000000     24.000000
  0.066558  0.039935  0.000000     24.000000
  0.073214  0.039935  0.000000     24.000000
  0.079870  0.039935  0.000000     24.000000
  0.086526  0.039935  0.000000     24.000000
  0.093181  0.039935  0.000000     24.000000
  0.099837  0.039935  0.000000     24.000000
  0.106493  0.039935  0.000000     24.000000
  0.113149  0.039935  0.000000     24.000000
  0.119805  0.039935  0.000000     12.000000
  0.046591  0.046591  0.000000     12.000000
  0.053247  0.046591  0.000000     24.000000
  0.059902  0.046591  0.000000     24.000000
  0.066558  0.046591  0.000000     24.000000
  0.073214  0.046591  0.000000     24.000000
  0.079870  0.046591  0.000000     24.000000
  0.086526  0.046591  0.000000     24.000000
  0.093181  0.046591  0.000000     24.000000
  0.099837  0.046591  0.000000     24.000000
  0.106493  0.046591  0.000000     24.000000
  0.113149  0.046591  0.000000     24.000000
  0.119805  0.046591  0.000000     12.000000
  0.053247  0.053247  0.000000     12.000000
  0.059902  0.053247  0.000000     24.000000
  0.066558  0.053247  0.000000     24.000000
  0.073214  0.053247  0.000000     24.000000
  0.079870  0.053247  0.000000     24.000000
  0.086526  0.053247  0.000000     24.000000
  0.093181  0.053247  0.000000     24.000000
  0.099837  0.053247  0.000000     24.000000
  0.106493  0.053247  0.000000     24.000000
  0.113149  0.053247  0.000000     24.000000
  0.119805  0.053247  0.000000     12.000000
  0.059902  0.059902  0.000000     12.000000
  0.066558  0.059902  0.000000     24.000000
  0.073214  0.059902  0.000000     24.000000
  0.079870  0.059902  0.000000     24.000000
  0.086526  0.059902  0.000000     24.000000
  0.093181  0.059902  0.000000     24.000000
  0.099837  0.059902  0.000000     24.000000
  0.106493  0.059902  0.000000     24.000000
  0.113149  0.059902  0.000000     24.000000
  0.119805  0.059902  0.000000     12.000000
  0.066558  0.066558  0.000000     12.000000
  0.073214  0.066558  0.000000     24.000000
  0.079870  0.066558  0.000000     24.000000
  0.086526  0.066558  0.000000     24.000000
  0.093181  0.066558  0.000000     24.000000
  0.099837  0.066558  0.000000     24.000000
  0.106493  0.066558  0.000000     24.000000
  0.113149  0.066558  0.000000     24.000000
  0.119805  0.066558  0.000000     12.000000
  0.073214  0.073214  0.000000     12.000000
  0.079870  0.073214  0.000000     24.000000
  0.086526  0.073214  0.000000     24.000000
  0.093181  0.073214  0.000000     24.000000
  0.099837  0.073214  0.000000     24.000000
  0.106493  0.073214  0.000000     24.000000
  0.113149  0.073214  0.000000     24.000000
  0.119805  0.073214  0.000000     12.000000
  0.079870  0.079870  0.000000     12.000000
  0.086526  0.079870  0.000000     24.000000
  0.093181  0.079870  0.000000     24.000000
  0.099837  0.079870  0.000000     24.000000
  0.106493  0.079870  0.000000     24.000000
  0.113149  0.079870  0.000000     24.000000
  0.119805  0.079870  0.000000     12.000000
  0.086526  0.086526  0.000000     12.000000
  0.093181  0.086526  0.000000     24.000000
  0.099837  0.086526  0.000000     24.000000
  0.106493  0.086526  0.000000     24.000000
  0.113149  0.086526  0.000000     24.000000
  0.119805  0.086526  0.000000     12.000000
  0.093181  0.093181  0.000000     12.000000
  0.099837  0.093181  0.000000     24.000000
  0.106493  0.093181  0.000000     24.000000
  0.113149  0.093181  0.000000     24.000000
  0.119805  0.093181  0.000000     12.000000
  0.099837  0.099837  0.000000     12.000000
  0.106493  0.099837  0.000000     24.000000
  0.113149  0.099837  0.000000     24.000000
  0.119805  0.099837  0.000000     12.000000
  0.106493  0.106493  0.000000     12.000000
  0.113149  0.106493  0.000000     24.000000
  0.119805  0.106493  0.000000     12.000000
  0.113149  0.113149  0.000000     12.000000
  0.119805  0.113149  0.000000     12.000000
  0.119805  0.119805  0.000000      3.000000
  0.006656  0.006656  0.006656      8.000000
  0.013312  0.006656  0.006656     24.000000
  0.019967  0.006656  0.006656     24.000000
  0.026623  0.006656  0.006656     24.000000
  0.033279  0.006656  0.006656     24.000000
  0.039935  0.006656  0.006656     24.000000
  0.046591  0.006656  0.006656     24.000000
  0.053247  0.006656  0.006656     24.000000
  0.059902  0.006656  0.006656     24.000000
  0.066558  0.006656  0.006656     24.000000
  0.073214  0.006656  0.006656     24.000000
  0.079870  0.006656  0.006656     24.000000
  0.086526  0.006656  0.006656     24.000000
  0.093181  0.006656  0.006656     24.000000
  0.099837  0.006656  0.006656     24.000000
  0.106493  0.006656  0.006656     24.000000
  0.113149  0.006656  0.006656     24.000000
  0.119805  0.006656  0.006656     12.000000
  0.013312  0.013312  0.006656     24.000000
  0.019967  0.013312  0.006656     48.000000
  0.026623  0.013312  0.006656     48.000000
  0.033279  0.013312  0.006656     48.000000
  0.039935  0.013312  0.006656     48.000000
  0.046591  0.013312  0.006656     48.000000
  0.053247  0.013312  0.006656     48.000000
  0.059902  0.013312  0.006656     48.000000
  0.066558  0.013312  0.006656     48.000000
  0.073214  0.013312  0.006656     48.000000
  0.079870  0.013312  0.006656     48.000000
  0.086526  0.013312  0.006656     48.000000
  0.093181  0.013312  0.006656     48.000000
  0.099837  0.013312  0.006656     48.000000
  0.106493  0.013312  0.006656     48.000000
  0.113149  0.013312  0.006656     48.000000
  0.119805  0.013312  0.006656     24.000000
  0.019967  0.019967  0.006656     24.000000
  0.026623  0.019967  0.006656     48.000000
  0.033279  0.019967  0.006656     48.000000
  0.039935  0.019967  0.006656     48.000000
  0.046591  0.019967  0.006656     48.000000
  0.053247  0.019967  0.006656     48.000000
  0.059902  0.019967  0.006656     48.000000
  0.066558  0.019967  0.006656     48.000000
  0.073214  0.019967  0.006656     48.000000
  0.079870  0.019967  0.006656     48.000000
  0.086526  0.019967  0.006656     48.000000
  0.093181  0.019967  0.006656     48.000000
  0.099837  0.019967  0.006656     48.000000
  0.106493  0.019967  0.006656     48.000000
  0.113149  0.019967  0.006656     48.000000
  0.119805  0.019967  0.006656     24.000000
  0.026623  0.026623  0.006656     24.000000
  0.033279  0.026623  0.006656     48.000000
  0.039935  0.026623  0.006656     48.000000
  0.046591  0.026623  0.006656     48.000000
  0.053247  0.026623  0.006656     48.000000
  0.059902  0.026623  0.006656     48.000000
  0.066558  0.026623  0.006656     48.000000
  0.073214  0.026623  0.006656     48.000000
  0.079870  0.026623  0.006656     48.000000
  0.086526  0.026623  0.006656     48.000000
  0.093181  0.026623  0.006656     48.000000
  0.099837  0.026623  0.006656     48.000000
  0.106493  0.026623  0.006656     48.000000
  0.113149  0.026623  0.006656     48.000000
  0.119805  0.026623  0.006656     24.000000
  0.033279  0.033279  0.006656     24.000000
  0.039935  0.033279  0.006656     48.000000
  0.046591  0.033279  0.006656     48.000000
  0.053247  0.033279  0.006656     48.000000
  0.059902  0.033279  0.006656     48.000000
  0.066558  0.033279  0.006656     48.000000
  0.073214  0.033279  0.006656     48.000000
  0.079870  0.033279  0.006656     48.000000
  0.086526  0.033279  0.006656     48.000000
  0.093181  0.033279  0.006656     48.000000
  0.099837  0.033279  0.006656     48.000000
  0.106493  0.033279  0.006656     48.000000
  0.113149  0.033279  0.006656     48.000000
  0.119805  0.033279  0.006656     24.000000
  0.039935  0.039935  0.006656     24.000000
  0.046591  0.039935  0.006656     48.000000
  0.053247  0.039935  0.006656     48.000000
  0.059902  0.039935  0.006656     48.000000
  0.066558  0.039935  0.006656     48.000000
  0.073214  0.039935  0.006656     48.000000
  0.079870  0.039935  0.006656     48.000000
  0.086526  0.039935  0.006656     48.000000
  0.093181  0.039935  0.006656     48.000000
  0.099837  0.039935  0.006656     48.000000
  0.106493  0.039935  0.006656     48.000000
  0.113149  0.039935  0.006656     48.000000
  0.119805  0.039935  0.006656     24.000000
  0.046591  0.046591  0.006656     24.000000
  0.053247  0.046591  0.006656     48.000000
  0.059902  0.046591  0.006656     48.000000
  0.066558  0.046591  0.006656     48.000000
  0.073214  0.046591  0.006656     48.000000
  0.079870  0.046591  0.006656     48.000000
  0.086526  0.046591  0.006656     48.000000
  0.093181  0.046591  0.006656     48.000000
  0.099837  0.046591  0.006656     48.000000
  0.106493  0.046591  0.006656     48.000000
  0.113149  0.046591  0.006656     48.000000
  0.119805  0.046591  0.006656     24.000000
[...]
     24       2.8589      0.00000
     25       4.4913      0.00000
     26       4.4913      0.00000
     27       4.4913      0.00000
     28       5.3435      0.00000
     29      16.7075      0.00000
     30      16.7075      0.00000
     31      16.7075      0.00000
     32      16.8812      0.00000

 k-point *** :       0.4722    0.4444    0.4444
  band No.  band energies     occupation 
      1      -2.5712      2.00000
      2      -2.5420      2.00000
      3      -2.5277      2.00000
      4      -2.5277      2.00000
      5      -0.9547      2.00000
      6      -0.9547      2.00000
      7      -0.9459      2.00000
      8      -0.9252      2.00000
      9      -0.9192      2.00000
     10      -0.9058      2.00000
     11      -0.9009      2.00000
     12      -0.9009      2.00000
     13       0.5367      2.00000
     14       0.5367      2.00000
     15       0.5519      2.00000
     16       0.6273      2.00000
     17       0.6575      2.00000
     18       0.6776      2.00000
     19       0.6776      2.00000
     20       0.6805      2.00000
     21       2.1287      2.00000
     22       2.6099      0.00000
     23       2.9344      0.00000
     24       2.9344      0.00000
     25       4.3575      0.00000
     26       4.3575      0.00000
     27       4.6644      0.00000
     28       5.0961      0.00000
     29      16.7375      0.00000
     30      16.7375      0.00000
     31      16.7994      0.00000
     32      16.8568      0.00000

 k-point *** :       0.5000    0.4444    0.4444
  band No.  band energies     occupation 
      1      -2.5599      2.00000
      2      -2.5599      2.00000
      3      -2.5311      2.00000
      4      -2.5311      2.00000
      5      -0.9530      2.00000
      6      -0.9530      2.00000
      7      -0.9345      2.00000
      8      -0.9345      2.00000
      9      -0.9151      2.00000
     10      -0.9151      2.00000
     11      -0.9041      2.00000
     12      -0.9041      2.00000
     13       0.5528      2.00000
     14       0.5528      2.00000
     15       0.5975      2.00000
     16       0.5975      2.00000
     17       0.6723      2.00000
     18       0.6723      2.00000
     19       0.6744      2.00000
     20       0.6744      2.00000
     21       2.3630      2.00000
     22       2.3630      2.00000
     23       2.9634      0.00000
     24       2.9634      0.00000
     25       4.3090      0.00000
     26       4.3090      0.00000
     27       4.8685      0.00000
     28       4.8685      0.00000
     29      16.7500      0.00000
     30      16.7500      0.00000
     31      16.8330      0.00000
     32      16.8331      0.00000

 k-point *** :       0.4722    0.4722    0.4444
  band No.  band energies     occupation 
      1      -2.5705      2.00000
      2      -2.5487      2.00000
      3      -2.5487      2.00000
      4      -2.5415      2.00000
      5      -0.9479      2.00000
      6      -0.9435      2.00000
      7      -0.9435      2.00000
      8      -0.9271      2.00000
      9      -0.9246      2.00000
     10      -0.9138      2.00000
     11      -0.9138      2.00000
     12      -0.9113      2.00000
     13       0.5824      2.00000
     14       0.5908      2.00000
     15       0.5908      2.00000
     16       0.6525      2.00000
     17       0.6543      2.00000
     18       0.6756      2.00000
     19       0.6772      2.00000
     20       0.6772      2.00000
     21       2.3200      2.00000
     22       2.7383      0.00000
     23       2.7383      0.00000
     24       2.9204      0.00000
     25       4.3080      0.00000
     26       4.4802      0.00000
     27       4.4802      0.00000
     28       4.8616      0.00000
     29      16.7621      0.00000
     30      16.7938      0.00000
     31      16.7938      0.00000
     32      16.8369      0.00000

 k-point *** :       0.5000    0.4722    0.4444
  band No.  band energies     occupation 
      1      -2.5630      2.00000
      2      -2.5630      2.00000
      3      -2.5485      2.00000
      4      -2.5485      2.00000
      5      -0.9439      2.00000
      6      -0.9439      2.00000
      7      -0.9342      2.00000
      8      -0.9342      2.00000
      9      -0.9218      2.00000
     10      -0.9218      2.00000
     11      -0.9159      2.00000
     12      -0.9159      2.00000
     13       0.6034      2.00000
     14       0.6034      2.00000
     15       0.6306      2.00000
     16       0.6306      2.00000
     17       0.6693      2.00000
     18       0.6693      2.00000
     19       0.6728      2.00000
     20       0.6728      2.00000
     21       2.5272      1.34668
     22       2.5272      1.34668
     23       2.8494      0.00000
     24       2.8494      0.00000
     25       4.3541      0.00000
     26       4.3541      0.00000
     27       4.6535      0.00000
     28       4.6535      0.00000
     29      16.7809      0.00000
     30      16.7809      0.00000
     31      16.8174      0.00000
     32      16.8174      0.00000

 k-point *** :       0.5000    0.5000    0.4444
  band No.  band energies     occupation 
      1      -2.5592      2.00000
      2      -2.5592      2.00000
      3      -2.5592      2.00000
      4      -2.5592      2.00000
      5      -0.9370      2.00000
      6      -0.9370      2.00000
      7      -0.9370      2.00000
      8      -0.9370      2.00000
      9      -0.9224      2.00000
     10      -0.9224      2.00000
     11      -0.9224      2.00000
     12      -0.9224      2.00000
     13       0.6356      2.00000
     14       0.6356      2.00000
     15       0.6356      2.00000
     16       0.6356      2.00000
     17       0.6657      2.00000
     18       0.6657      2.00000
     19       0.6657      2.00000
     20       0.6657      2.00000
     21       2.6954      0.00000
     22       2.6954      0.00000
     23       2.6954      0.00000
     24       2.6954      0.00000
     25       4.4768      0.00000
     26       4.4768      0.00000
     27       4.4768      0.00000
     28       4.4768      0.00000
     29      16.8000      0.00000
     30      16.8000      0.00000
     31      16.8000      0.00000
     32      16.8000      0.00000

 k-point *** :       0.4722    0.4722    0.4722
  band No.  band energies     occupation 
      1      -2.5736      2.00000
      2      -2.5591      2.00000
      3      -2.5591      2.00000
      4      -2.5591      2.00000
      5      -0.9395      2.00000
      6      -0.9395      2.00000
      7      -0.9395      2.00000
      8      -0.9290      2.00000
      9      -0.9290      2.00000
     10      -0.9223      2.00000
     11      -0.9223      2.00000
     12      -0.9223      2.00000
     13       0.6297      2.00000
     14       0.6297      2.00000
     15       0.6297      2.00000
     16       0.6683      2.00000
     17       0.6683      2.00000
     18       0.6799      2.00000
     19       0.6799      2.00000
     20       0.6799      2.00000
     21       2.4832      2.00000
     22       2.8051      0.00000
     23       2.8051      0.00000
     24       2.8051      0.00000
     25       4.3519      0.00000
     26       4.3519      0.00000
     27       4.3519      0.00000
     28       4.6478      0.00000
     29      16.7994      0.00000
     30      16.7994      0.00000
     31      16.7994      0.00000
     32      16.8255      0.00000

 k-point *** :       0.5000    0.4722    0.4722
  band No.  band energies     occupation 
      1      -2.5698      2.00000
      2      -2.5698      2.00000
      3      -2.5625      2.00000
      4      -2.5625      2.00000
      5      -0.9378      2.00000
      6      -0.9378      2.00000
      7      -0.9332      2.00000
      8      -0.9332      2.00000
      9      -0.9282      2.00000
     10      -0.9282      2.00000
     11      -0.9255      2.00000
     12      -0.9255      2.00000
     13       0.6455      2.00000
     14       0.6455      2.00000
     15       0.6591      2.00000
     16       0.6591      2.00000
     17       0.6774      2.00000
     18       0.6774      2.00000
     19       0.6779      2.00000
     20       0.6779      2.00000
     21       2.6511      0.00000
     22       2.6511      0.00000
     23       2.8305      0.00000
     24       2.8305      0.00000
     25       4.3060      0.00000
     26       4.3060      0.00000
     27       4.4727      0.00000
     28       4.4727      0.00000
     29      16.7998      0.00000
     30      16.7998      0.00000
     31      16.8135      0.00000
     32      16.8135      0.00000

 k-point *** :       0.5000    0.5000    0.4722
  band No.  band energies     occupation 
      1      -2.5696      2.00000
      2      -2.5696      2.00000
      3      -2.5696      2.00000
      4      -2.5696      2.00000
      5      -0.9338      2.00000
      6      -0.9338      2.00000
      7      -0.9338      2.00000
      8      -0.9338      2.00000
      9      -0.9301      2.00000
     10      -0.9301      2.00000
     11      -0.9301      2.00000
     12      -0.9301      2.00000
     13       0.6682      2.00000
     14       0.6682      2.00000
     15       0.6682      2.00000
     16       0.6682      2.00000
     17       0.6758      2.00000
     18       0.6758      2.00000
     19       0.6758      2.00000
     20       0.6758      2.00000
     21       2.7593      0.00000
     22       2.7593      0.00000
     23       2.7593      0.00000
     24       2.7593      0.00000
     25       4.3502      0.00000
     26       4.3502      0.00000
     27       4.3502      0.00000
     28       4.3502      0.00000
     29      16.8068      0.00000
     30      16.8068      0.00000
     31      16.8068      0.00000
     32      16.8068      0.00000

 k-point *** :       0.5000    0.5000    0.5000
  band No.  band energies     occupation 
      1      -2.5731      2.00000
      2      -2.5731      2.00000
      3      -2.5731      2.00000
      4      -2.5731      2.00000
      5      -0.9327      2.00000
      6      -0.9327      2.00000
      7      -0.9327      2.00000
      8      -0.9327      2.00000
      9      -0.9327      2.00000
     10      -0.9327      2.00000
     11      -0.9327      2.00000
     12      -0.9327      2.00000
     13       0.6791      2.00000
     14       0.6791      2.00000
     15       0.6791      2.00000
     16       0.6791      2.00000
     17       0.6791      2.00000
     18       0.6791      2.00000
     19       0.6791      2.00000
     20       0.6791      2.00000
     21       2.7835      0.00000
     22       2.7835      0.00000
     23       2.7835      0.00000
     24       2.7835      0.00000
     25       4.3050      0.00000
     26       4.3050      0.00000
     27       4.3050      0.00000
     28       4.3050      0.00000
     29      16.8068      0.00000
     30      16.8068      0.00000
     31      16.8068      0.00000
     32      16.8068      0.00000


--------------------------------------------------------------------------------------------------------


 soft charge-density along one line, spin component           1
         0         1         2         3         4         5         6         7         8         9
 total charge-density along one line
 
 pseudopotential strength for first ion, spin component:           1
-10.825  -0.000   0.000  -0.000  -0.000   0.043   0.000  -0.000
 -0.000 -10.825   0.000  -0.000   0.000   0.000   0.043  -0.000
  0.000   0.000 -10.814   0.000  -0.000  -0.000  -0.000   0.042
 -0.000  -0.000   0.000 -10.825  -0.000   0.000   0.000  -0.000
 -0.000   0.000  -0.000  -0.000 -10.814   0.000  -0.000   0.000
  0.043   0.000  -0.000   0.000   0.000   0.264  -0.000   0.000
  0.000   0.043  -0.000   0.000  -0.000  -0.000   0.264   0.000
 -0.000  -0.000   0.042  -0.000   0.000   0.000   0.000   0.265
  0.000   0.000  -0.000   0.043   0.000  -0.000  -0.000   0.000
  0.000  -0.000   0.000   0.000   0.042  -0.000   0.000  -0.000
  0.000   0.000  -0.000   0.000  -0.000   0.000   0.000  -0.000
 -0.000  -0.000   0.000  -0.000   0.000   0.000   0.000  -0.000
  0.000  -0.000   0.000  -0.000   0.000  -0.000   0.000  -0.000
 -0.000  -0.000  -0.000   0.000  -0.000   0.000   0.000   0.000
 -0.000  -0.000  -0.000  -0.000   0.000   0.000   0.000   0.000
 -0.000   0.000  -0.000   0.000  -0.000   0.000  -0.000   0.000
  0.000   0.000   0.000  -0.000   0.000  -0.000  -0.000  -0.000
  0.000   0.000   0.000   0.000  -0.000  -0.000  -0.000  -0.000
 total augmentation occupancy for first ion, spin component:           1
  1.871  -0.011  -0.006   0.006  -0.018  -0.067   0.009  -0.013  -0.004   0.014   0.014  -0.017  -0.000   0.000  -0.000  -0.000
 -0.011   1.958  -0.004  -0.013  -0.003   0.009  -0.108   0.006   0.012  -0.008   0.069   0.005   0.000  -0.000   0.000   0.000
 -0.006  -0.004   1.933   0.006  -0.022  -0.013   0.006  -0.086  -0.002   0.020  -0.064  -0.046  -0.000   0.000  -0.000  -0.000
  0.006  -0.013   0.006   1.932  -0.003  -0.004   0.012  -0.002  -0.072   0.010   0.024  -0.004  -0.000  -0.000   0.000  -0.000
 -0.018  -0.003  -0.022  -0.003   1.983   0.014  -0.008   0.020   0.010  -0.128   0.098   0.031   0.000  -0.000   0.000   0.000
 -0.067   0.009  -0.013  -0.004   0.014   0.107  -0.005   0.023   0.002  -0.009   0.028   0.025  -0.000  -0.000  -0.000  -0.000
  0.009  -0.108   0.006   0.012  -0.008  -0.005   0.090  -0.007  -0.007   0.013  -0.023   0.011  -0.000   0.000  -0.000  -0.000
 -0.013   0.006  -0.086  -0.002   0.020   0.023  -0.007   0.076  -0.001  -0.004   0.090   0.002   0.000   0.000  -0.000  -0.000
 -0.004   0.012  -0.002  -0.072   0.010   0.002  -0.007  -0.001   0.065  -0.013   0.002   0.012   0.000   0.000  -0.000   0.000
  0.014  -0.008   0.020   0.010  -0.128  -0.009   0.013  -0.004  -0.013   0.060  -0.072   0.008  -0.000   0.000  -0.000  -0.000
  0.014   0.069  -0.064   0.024   0.098   0.028  -0.023   0.090   0.002  -0.072   0.963  -0.230   0.000   0.000   0.000   0.000
 -0.017   0.005  -0.046  -0.004   0.031   0.025   0.011   0.002   0.012   0.008  -0.230   0.116  -0.000  -0.000  -0.000  -0.000
 -0.000   0.000  -0.000  -0.000   0.000  -0.000  -0.000   0.000   0.000  -0.000   0.000  -0.000   0.073   0.013  -0.004  -0.005
  0.000  -0.000   0.000  -0.000  -0.000  -0.000   0.000   0.000   0.000   0.000   0.000  -0.000   0.013   0.057   0.000  -0.001
 -0.000   0.000  -0.000   0.000   0.000  -0.000  -0.000  -0.000  -0.000  -0.000   0.000  -0.000  -0.004   0.000   0.114  -0.000
 -0.000   0.000  -0.000  -0.000   0.000  -0.000  -0.000  -0.000   0.000  -0.000   0.000  -0.000  -0.005  -0.001  -0.000   0.000
  0.000  -0.000   0.000   0.000  -0.000  -0.000   0.000   0.000  -0.000   0.000   0.000  -0.000  -0.001  -0.004  -0.000   0.000
 -0.000   0.000  -0.000   0.000   0.000  -0.000  -0.000   0.000  -0.000  -0.000   0.000  -0.000  -0.000  -0.000  -0.008   0.000


------------------------ aborting loop because EDIFF is reached ----------------------------------------




--------------------------------------------------------------------------------------------------------


    CHARGE:  VPU time    5.36: CPU time    5.36
    FORLOC:  VPU time    0.00: CPU time    0.00
    FORNL :  VPU time   11.78: CPU time   11.81
    STRESS:  VPU time   35.58: CPU time   35.65
    FORCOR:  VPU time    0.06: CPU time    0.06
    FORHAR:  VPU time    0.01: CPU time    0.01
    MIXING:  VPU time    0.00: CPU time    0.00


--------------------------------------------------------------------------------------------------------



  FREE ENERGIE OF THE ION-ELECTRON SYSTEM (eV)
  ---------------------------------------------------
  free  energy   TOTEN  =       -11.876367 eV

  energy  without entropy=      -11.876288  energy(sigma->0) =      -11.876327
 

  FORCE on cell =-STRESS in cart. coord.  units (eV/reduce length):
  Direction    X        Y        Z        XY       YZ       ZX
  --------------------------------------------------------------------------------------
  Alpha Z    327.23    327.23    327.23
  Ewald    -1181.56  -1181.56  -1181.56      0.00     -0.00     -0.00
  Hartree    205.26    205.26    205.26      0.00     -0.00     -0.00
  E(xc)     -196.20   -196.20   -196.20     -0.00     -0.00      0.00
  Local      270.20    270.20    270.20     -0.00     -0.00     -0.00
  n-local   -204.70   -220.03   -223.04      0.75      5.16      1.84
  augment    172.13    172.13    172.13     -0.00     -0.00     -0.00
  Kinetic    614.29    609.56    606.12     -3.26     -0.43     -1.88
  -------------------------------------------------------------------------------------
  Total       -8.87     -8.87     -8.87      0.00      0.00     -0.00
  in kB     -155.16   -155.16   -155.16      0.00      0.00     -0.00
  external pressure =     -155.16 kB  Pullay stress =        0.00 kB


 VOLUME and BASIS-vectors are now :
 -----------------------------------------------------------------------------
  energy-cutoff  :     1000.00
  volume of cell :       91.57
      direct lattice vectors                 reciprocal lattice vectors
     4.507338354  0.000000000  0.000000000     0.221860424  0.000000000  0.000000000
     0.000000000  4.507338354  0.000000000     0.000000000  0.221860424  0.000000000
     0.000000000  0.000000000  4.507338354     0.000000000  0.000000000  0.221860424

  length of vectors
     4.507338354  4.507338354  4.507338354     0.221860424  0.221860424  0.221860424


 FORCES acting on ions
    electron-ion (+dipol)            ewald-force                    non-local-force                 convergence-correction
 -----------------------------------------------------------------------------------------------
   -.246E-13 -.257E-13 -.242E-13   -.578E-14 -.835E-14 -.285E-14   0.220E-25 0.253E-25 -.335E-25   -.150E-13 -.906E-15 -.363E-13
   0.203E-12 -.470E-12 -.413E-12   0.355E-14 -.643E-14 -.283E-14   -.151E-25 -.373E-25 -.363E-25   0.108E-14 -.106E-14 -.352E-13
   0.202E-12 -.257E-13 -.265E-11   0.455E-14 0.486E-14 0.314E-14   -.861E-27 -.141E-25 0.150E-25   0.136E-14 -.153E-14 0.200E-13
   -.249E-13 0.202E-12 0.201E-12   -.601E-15 0.678E-14 0.316E-14   -.406E-25 0.111E-25 -.158E-25   -.155E-13 0.133E-14 0.205E-13
 -----------------------------------------------------------------------------------------------
   0.356E-12 -.319E-12 -.289E-11   0.172E-14 -.313E-14 0.620E-15   -.346E-25 -.150E-25 -.705E-25   -.281E-13 -.217E-14 -.310E-13
 
 
 POSITION                                       TOTAL-FORCE (eV/Angst)
 -----------------------------------------------------------------------------------
      0.00000      0.00000      0.00000        -0.000000      0.000000     -0.000000
      2.25367      2.25367      0.00000        -0.000000      0.000000      0.000000
      2.25367      0.00000      2.25367         0.000000     -0.000000     -0.000000
      0.00000      2.25367      2.25367         0.000000     -0.000000      0.000000
 -----------------------------------------------------------------------------------
    total drift:                                0.000000     -0.000000     -0.000000


--------------------------------------------------------------------------------------------------------



 mean value of Nose-termostat <S>:     1.000 mean value of <T> :     0.000
 mean temperature <T/S>/<1/S>  :     0.000

     LOOP+:  VPU time 1421.36: CPU time 1424.42
  
  
 General timing and accounting informations for this job:
 ========================================================
  
                  Total CPU time used (sec):     1455.025
                            User time (sec):     1331.322
                          System time (sec):      123.703
                         Elapsed time (sec):     1458.165
  
                   Maximum memory used (kb):     9265356.
                   Average memory used (kb):           0.
  
                          Minor page faults:      1873872
                          Major page faults:            0
                 Voluntary context switches:         1034
