   4   4   0   0
  0.1131840E+02  0.3564088E-09  0.3564088E-09  0.3564088E-09  0.5000000E-15
  1.000000000000000E-004
  CAR 
 unknown system                          
     27.62462523     -7.08961294  301      4.18397263      1.00000000
     -7.090  0.0000E+00  0.0000E+00
     -6.974  0.0000E+00  0.0000E+00
     -6.858  0.0000E+00  0.0000E+00
     -6.742  0.0000E+00  0.0000E+00
     -6.627  0.0000E+00  0.0000E+00
     -6.511  0.0000E+00  0.0000E+00
     -6.395  0.0000E+00  0.0000E+00
     -6.280  0.0000E+00  0.0000E+00
     -6.164  0.0000E+00  0.0000E+00
     -6.048  0.0000E+00  0.0000E+00
     -5.932  0.0000E+00  0.0000E+00
     -5.817  0.0000E+00  0.0000E+00
     -5.701  0.0000E+00  0.0000E+00
     -5.585  0.0000E+00  0.0000E+00
     -5.470  0.1498E-01  0.1733E-02
     -5.354  0.6769E-01  0.1174E-01
     -5.238  0.1108E+00  0.2628E-01
     -5.122  0.8970E-01  0.4669E-01
     -5.007  0.1213E+00  0.6684E-01
     -4.891  0.1622E+00  0.9327E-01
     -4.775  0.1286E+00  0.1218E+00
     -4.660  0.1298E+00  0.1489E+00
     -4.544  0.2048E+00  0.1888E+00
     -4.428  0.2139E+00  0.2211E+00
     -4.312  0.2842E+00  0.2607E+00
     -4.197  0.2841E+00  0.3024E+00
     -4.081  0.3122E+00  0.3412E+00
     -3.965  0.1696E+00  0.3838E+00
     -3.850  0.2159E+00  0.4267E+00
     -3.734  0.3065E+00  0.4798E+00
     -3.618  0.3859E+00  0.5410E+00
     -3.502  0.2466E+00  0.5770E+00
     -3.387  0.3409E+00  0.6383E+00
     -3.271  0.4231E+00  0.7077E+00
     -3.155  0.3816E+00  0.7596E+00
     -3.040  0.3458E+00  0.8284E+00
     -2.924  0.4415E+00  0.8889E+00
     -2.808  0.4508E+00  0.9646E+00
     -2.692  0.4101E+00  0.1033E+01
     -2.577  0.5029E+00  0.1112E+01
     -2.461  0.4058E+00  0.1191E+01
     -2.345  0.5297E+00  0.1278E+01
     -2.230  0.6105E+00  0.1369E+01
     -2.114  0.4822E+00  0.1469E+01
     -1.998  0.7493E+00  0.1570E+01
     -1.882  0.5452E+00  0.1676E+01
     -1.767  0.7120E+00  0.1793E+01
     -1.651  0.9931E+00  0.1932E+01
     -1.535  0.7995E+00  0.2066E+01
     -1.420  0.1032E+01  0.2230E+01
     -1.304  0.1279E+01  0.2429E+01
     -1.188  0.1786E+01  0.2677E+01
     -1.072  0.2125E+01  0.2977E+01
     -0.957  0.2891E+01  0.3397E+01
     -0.841  0.3141E+01  0.3922E+01
     -0.725  0.3220E+01  0.4465E+01
     -0.610  0.3212E+01  0.5010E+01
     -0.494  0.3383E+01  0.5595E+01
     -0.378  0.4587E+01  0.6367E+01
     -0.262  0.5625E+01  0.7304E+01
     -0.147  0.7019E+01  0.8366E+01
     -0.031  0.6152E+01  0.9374E+01
      0.085  0.5812E+01  0.1028E+02
      0.200  0.5933E+01  0.1122E+02
      0.316  0.5414E+01  0.1211E+02
      0.432  0.5292E+01  0.1303E+02
      0.548  0.6952E+01  0.1417E+02
      0.663  0.8380E+01  0.1546E+02
      0.779  0.8362E+01  0.1684E+02
      0.895  0.8958E+01  0.1829E+02
      1.010  0.9722E+01  0.2002E+02
      1.126  0.1080E+02  0.2181E+02
      1.242  0.1080E+02  0.2377E+02
      1.358  0.7633E+01  0.2510E+02
      1.473  0.6645E+01  0.2622E+02
      1.589  0.6798E+01  0.2735E+02
      1.705  0.8931E+01  0.2881E+02
      1.820  0.9878E+01  0.3043E+02
      1.936  0.9085E+01  0.3198E+02
      2.052  0.8279E+01  0.3340E+02
      2.168  0.7909E+01  0.3475E+02
      2.283  0.9105E+01  0.3626E+02
      2.399  0.1221E+02  0.3820E+02
      2.515  0.1429E+02  0.4076E+02
      2.630  0.5747E+01  0.4190E+02
      2.746  0.1143E+01  0.4208E+02
      2.862  0.6589E+00  0.4224E+02
      2.978  0.1411E+01  0.4245E+02
      3.093  0.9822E+00  0.4260E+02
      3.209  0.7648E+00  0.4276E+02
      3.325  0.1160E+01  0.4293E+02
      3.440  0.9220E+00  0.4309E+02
      3.556  0.9333E+00  0.4324E+02
      3.672  0.9114E+00  0.4339E+02
      3.788  0.7782E+00  0.4351E+02
      3.903  0.1137E+01  0.4368E+02
      4.019  0.6871E+00  0.4381E+02
      4.135  0.7691E+00  0.4393E+02
      4.250  0.9771E+00  0.4410E+02
      4.366  0.1064E+01  0.4424E+02
      4.482  0.6537E+00  0.4433E+02
      4.598  0.9548E+00  0.4447E+02
      4.713  0.8252E+00  0.4460E+02
      4.829  0.7967E+00  0.4472E+02
      4.945  0.9100E+00  0.4485E+02
      5.060  0.7337E+00  0.4498E+02
      5.176  0.7796E+00  0.4509E+02
      5.292  0.5606E+00  0.4519E+02
      5.408  0.8016E+00  0.4532E+02
      5.523  0.7383E+00  0.4546E+02
      5.639  0.4604E+00  0.4555E+02
      5.755  0.6545E+00  0.4567E+02
      5.870  0.7516E+00  0.4579E+02
      5.986  0.7031E+00  0.4592E+02
      6.102  0.7157E+00  0.4604E+02
      6.218  0.4559E+00  0.4612E+02
      6.333  0.7805E+00  0.4623E+02
      6.449  0.6455E+00  0.4635E+02
      6.565  0.7089E+00  0.4646E+02
      6.680  0.4236E+00  0.4653E+02
      6.796  0.4370E+00  0.4663E+02
      6.912  0.4236E+00  0.4671E+02
      7.028  0.8827E+00  0.4684E+02
      7.143  0.2375E+00  0.4689E+02
      7.259  0.4090E+00  0.4699E+02
      7.375  0.5621E+00  0.4707E+02
      7.490  0.3366E+00  0.4713E+02
      7.606  0.2229E+00  0.4720E+02
      7.722  0.5973E+00  0.4731E+02
      7.838  0.1672E+00  0.4736E+02
      7.953  0.2953E+00  0.4743E+02
      8.069  0.3052E+00  0.4747E+02
      8.185  0.5096E+00  0.4756E+02
      8.300  0.6987E+00  0.4768E+02
      8.416  0.9269E+00  0.4781E+02
      8.532  0.5308E+00  0.4791E+02
      8.648  0.9244E+00  0.4805E+02
      8.763  0.8257E+00  0.4819E+02
      8.879  0.1021E+01  0.4833E+02
      8.995  0.4213E+00  0.4842E+02
      9.110  0.7251E+00  0.4858E+02
      9.226  0.7879E+00  0.4870E+02
      9.342  0.7795E+00  0.4883E+02
      9.458  0.6624E+00  0.4897E+02
      9.573  0.8252E+00  0.4911E+02
      9.689  0.9037E+00  0.4924E+02
      9.805  0.8054E+00  0.4936E+02
      9.920  0.7558E+00  0.4948E+02
     10.036  0.7534E+00  0.4960E+02
     10.152  0.7603E+00  0.4971E+02
     10.268  0.5632E+00  0.4982E+02
     10.383  0.6090E+00  0.4994E+02
     10.499  0.7381E+00  0.5007E+02
     10.615  0.5383E+00  0.5017E+02
     10.730  0.6661E+00  0.5027E+02
     10.846  0.6919E+00  0.5038E+02
     10.962  0.7430E+00  0.5050E+02
     11.078  0.4986E+00  0.5060E+02
     11.193  0.6851E+00  0.5070E+02
     11.309  0.6480E+00  0.5080E+02
     11.425  0.6705E+00  0.5090E+02
     11.540  0.6321E+00  0.5102E+02
     11.656  0.4971E+00  0.5111E+02
     11.772  0.7425E+00  0.5123E+02
     11.888  0.8196E+00  0.5139E+02
     12.003  0.8807E+00  0.5154E+02
     12.119  0.6392E+00  0.5168E+02
     12.235  0.5697E+00  0.5179E+02
     12.350  0.9572E+00  0.5192E+02
     12.466  0.7531E+00  0.5205E+02
     12.582  0.1258E+01  0.5226E+02
     12.698  0.9899E+00  0.5242E+02
     12.813  0.7930E+00  0.5257E+02
     12.929  0.8396E+00  0.5269E+02
     13.045  0.8215E+00  0.5284E+02
     13.160  0.1205E+01  0.5302E+02
     13.276  0.1211E+01  0.5320E+02
     13.392  0.9271E+00  0.5337E+02
     13.508  0.8953E+00  0.5351E+02
     13.623  0.9105E+00  0.5366E+02
     13.739  0.9056E+00  0.5379E+02
     13.855  0.1098E+01  0.5397E+02
     13.970  0.1026E+01  0.5413E+02
     14.086  0.1166E+01  0.5433E+02
     14.202  0.8247E+00  0.5448E+02
     14.318  0.1343E+01  0.5466E+02
     14.433  0.9238E+00  0.5478E+02
     14.549  0.9150E+00  0.5494E+02
     14.665  0.1148E+01  0.5513E+02
     14.780  0.8568E+00  0.5530E+02
     14.896  0.9454E+00  0.5546E+02
     15.012  0.7753E+00  0.5560E+02
     15.127  0.9939E+00  0.5580E+02
     15.243  0.9199E+00  0.5597E+02
     15.359  0.7871E+00  0.5612E+02
     15.475  0.1268E+01  0.5632E+02
     15.590  0.1241E+01  0.5650E+02
     15.706  0.9048E+00  0.5665E+02
     15.822  0.7787E+00  0.5680E+02
     15.937  0.1130E+01  0.5697E+02
     16.053  0.1447E+01  0.5718E+02
     16.169  0.9136E+00  0.5735E+02
     16.285  0.1148E+01  0.5753E+02
     16.400  0.1123E+01  0.5768E+02
     16.516  0.1183E+01  0.5787E+02
     16.632  0.1248E+01  0.5808E+02
     16.747  0.5732E+00  0.5823E+02
     16.863  0.6373E+00  0.5836E+02
     16.979  0.1379E+01  0.5859E+02
     17.095  0.1104E+01  0.5878E+02
     17.210  0.8891E+00  0.5895E+02
     17.326  0.1135E+01  0.5913E+02
     17.442  0.1410E+01  0.5936E+02
     17.557  0.9281E+00  0.5954E+02
     17.673  0.1098E+01  0.5973E+02
     17.789  0.1152E+01  0.5991E+02
     17.905  0.1118E+01  0.6011E+02
     18.020  0.1355E+01  0.6032E+02
     18.136  0.7325E+00  0.6048E+02
     18.252  0.1144E+01  0.6066E+02
     18.367  0.1022E+01  0.6082E+02
     18.483  0.1114E+01  0.6100E+02
     18.599  0.1143E+01  0.6119E+02
     18.715  0.9599E+00  0.6134E+02
     18.830  0.8012E+00  0.6146E+02
     18.946  0.8471E+00  0.6164E+02
     19.062  0.8152E+00  0.6178E+02
     19.177  0.5786E+00  0.6190E+02
     19.293  0.5138E+00  0.6200E+02
     19.409  0.4996E+00  0.6210E+02
     19.525  0.1062E+01  0.6224E+02
     19.640  0.6459E+00  0.6234E+02
     19.756  0.4214E+00  0.6242E+02
     19.872  0.4855E+00  0.6249E+02
     19.987  0.5358E+00  0.6258E+02
     20.103  0.5918E+00  0.6268E+02
     20.219  0.3326E+00  0.6273E+02
     20.335  0.3114E+00  0.6281E+02
     20.450  0.4801E+00  0.6287E+02
     20.566  0.3646E+00  0.6294E+02
     20.682  0.4319E+00  0.6300E+02
     20.797  0.2110E+00  0.6304E+02
     20.913  0.4336E+00  0.6309E+02
     21.029  0.3593E+00  0.6316E+02
     21.145  0.2061E+00  0.6323E+02
     21.260  0.1289E+00  0.6324E+02
     21.376  0.3643E+00  0.6329E+02
     21.492  0.2374E+00  0.6334E+02
     21.607  0.2043E+00  0.6337E+02
     21.723  0.3224E+00  0.6342E+02
     21.839  0.7100E-01  0.6345E+02
     21.955  0.2993E+00  0.6348E+02
     22.070  0.2609E+00  0.6352E+02
     22.186  0.2081E+00  0.6355E+02
     22.302  0.1755E+00  0.6357E+02
     22.417  0.3577E-01  0.6359E+02
     22.533  0.2897E+00  0.6364E+02
     22.649  0.1200E+00  0.6366E+02
     22.765  0.2722E-01  0.6366E+02
     22.880  0.2679E+00  0.6370E+02
     22.996  0.7864E-01  0.6371E+02
     23.112  0.2701E+00  0.6375E+02
     23.227  0.1806E+00  0.6377E+02
     23.343  0.1267E-03  0.6378E+02
     23.459  0.6001E-01  0.6379E+02
     23.575  0.2100E+00  0.6381E+02
     23.690  0.1789E+00  0.6383E+02
     23.806  0.3187E-01  0.6384E+02
     23.922  0.8413E-01  0.6386E+02
     24.037  0.9002E-01  0.6387E+02
     24.153  0.1019E+00  0.6388E+02
     24.269  0.6959E-01  0.6389E+02
     24.385  0.4212E-01  0.6390E+02
     24.500  0.5603E-01  0.6391E+02
     24.616  0.5736E-01  0.6393E+02
     24.732  0.1198E+00  0.6394E+02
     24.847  0.3331E-17  0.6394E+02
     24.963  0.8908E-01  0.6395E+02
     25.079  0.5566E-01  0.6396E+02
     25.195  0.3999E-01  0.6396E+02
     25.310  0.3036E-01  0.6397E+02
     25.426  0.1383E-05  0.6397E+02
     25.542  0.8195E-03  0.6398E+02
     25.657  0.0000E+00  0.6399E+02
     25.773  0.0000E+00  0.6399E+02
     25.889  0.6137E-01  0.6399E+02
     26.005  0.4454E-02  0.6400E+02
     26.120  0.1000E-01  0.6400E+02
     26.236  0.0000E+00  0.6400E+02
     26.352  0.0000E+00  0.6400E+02
     26.467  0.0000E+00  0.6400E+02
     26.583  0.0000E+00  0.6400E+02
     26.699  0.0000E+00  0.6400E+02
     26.815  0.0000E+00  0.6400E+02
     26.930  0.0000E+00  0.6400E+02
     27.046  0.0000E+00  0.6400E+02
     27.162  0.0000E+00  0.6400E+02
     27.277  0.0000E+00  0.6400E+02
     27.393  0.0000E+00  0.6400E+02
     27.509  0.0000E+00  0.6400E+02
     27.625  0.0000E+00  0.6400E+02
