    4    4    1    1
  0.1131840E+02  0.3564088E-09  0.3564088E-09  0.3564088E-09  0.5000000E-15
  1.000000000000000E-004
  CAR 
 unknown system                          
   44  455   32
 
  0.0000000E+00  0.0000000E+00  0.0000000E+00  0.7233796E-04
   1       -5.5117
   2       -0.9882
   3       -0.9882
   4       -0.9882
   5       -0.5079
   6       -0.5079
   7       -0.5079
   8        0.9785
   9        0.9785
  10        0.9785
  11        1.8630
  12        1.8630
  13        2.4499
  14        2.4499
  15        2.4499
  16        2.6146
  17        2.6146
  18        2.6146
  19        2.6146
  20        2.6146
  21        2.6146
  22        5.6477
  23        5.6477
  24        5.6477
  25       11.5883
  26       11.5883
  27       11.5883
  28       17.6839
  29       17.6839
  30       17.6839
  31       17.6839
  32       17.6839
 
  0.4166667E-01  0.0000000E+00  0.0000000E+00  0.4340278E-03
   1       -5.4899
   2       -0.9879
   3       -0.9778
   4       -0.9778
   5       -0.5019
   6       -0.5016
   7       -0.5016
   8        0.9718
   9        0.9839
  10        0.9839
  11        1.8569
  12        1.8655
  13        2.4420
  14        2.4420
  15        2.4473
  16        2.5720
  17        2.5720
  18        2.6053
  19        2.6053
  20        2.6147
  21        2.6147
  22        5.5062
  23        5.7097
  24        5.7097
  25       11.5958
  26       11.5958
  27       11.7722
  28       17.5217
  29       17.5217
  30       17.5873
  31       17.5873
  32       17.7162
 
  0.8333333E-01  0.0000000E+00  0.0000000E+00  0.4340278E-03
   1       -5.4246
   2       -0.9878
   3       -0.9467
   4       -0.9467
   5       -0.4840
   6       -0.4825
   7       -0.4825
   8        0.9518
   9        0.9999
  10        0.9999
  11        1.8387
  12        1.8728
  13        2.4184
  14        2.4184
  15        2.4396
  16        2.4534
  17        2.4534
  18        2.5775
  19        2.5775
  20        2.6147
  21        2.6147
  22        5.1281
  23        5.8859
  24        5.8859
  25       11.6186
  26       11.6186
  27       12.2781
  28       17.0968
  29       17.0968
  30       17.3191
  31       17.3191
  32       17.8128
 
  0.1250000E+00  0.0000000E+00  0.0000000E+00  0.4340278E-03
   1       -5.3161
   2       -0.9910
   3       -0.8961
   4       -0.8961
   5       -0.4544
   6       -0.4507
   7       -0.4507
   8        0.9187
   9        1.0265
  10        1.0265
  11        1.8089
  12        1.8849
  13        2.2806
  14        2.2806
  15        2.3797
  16        2.3797
  17        2.4270
  18        2.5324
  19        2.5324
  20        2.6148
  21        2.6148
  22        4.6067
  23        6.1548
  24        6.1548
  25       11.6570
  26       11.6570
  27       13.0150
  28       16.5195
  29       16.5195
  30       16.9290
  31       16.9290
  32       17.9725
 
  0.1666667E+00  0.0000000E+00  0.0000000E+00  0.4340278E-03
   1       -5.1651
   2       -1.0031
   3       -0.8279
   4       -0.8279
   5       -0.4136
   6       -0.4060
   7       -0.4060
   8        0.8735
   9        1.0634
  10        1.0634
  11        1.7685
  12        1.9015
  13        2.0754
  14        2.0754
  15        2.3269
  16        2.3269
  17        2.4097
  18        2.4714
  19        2.4714
  20        2.6148
  21        2.6148
  22        4.0233
  23        6.4944
  24        6.4944
  25       11.7120
  26       11.7120
  27       13.9062
  28       15.8680
  29       15.8680
  30       16.4690
  31       16.4690
  32       18.1935
 
  0.2083333E+00  0.0000000E+00  0.0000000E+00  0.4340278E-03
   1       -4.9726
   2       -1.0330
   3       -0.7447
   4       -0.7447
   5       -0.3621
   6       -0.3483
   7       -0.3483
   8        0.8168
   9        1.1106
  10        1.1106
  11        1.7187
  12        1.8544
  13        1.8544
  14        1.9224
  15        2.2617
  16        2.2617
  17        2.3880
  18        2.3966
  19        2.3966
  20        2.6149
  21        2.6149
  22        3.4338
  23        6.8878
  24        6.8878
  25       11.7849
  26       11.7849
  27       14.9024
  28       15.1847
  29       15.1847
  30       15.9794
  31       15.9794
  32       18.4737
 
  0.2500000E+00  0.0000000E+00  0.0000000E+00  0.4340278E-03
   1       -4.7399
   2       -1.0933
   3       -0.6503
   4       -0.6503
   5       -0.3007
   6       -0.2773
   7       -0.2773
   8        0.7499
   9        1.1676
  10        1.1676
  11        1.6286
  12        1.6286
  13        1.6615
  14        1.9473
  15        2.1864
  16        2.1864
  17        2.3101
  18        2.3101
  19        2.3623
  20        2.6151
  21        2.6151
  22        2.8785
  23        7.3237
  24        7.3237
  25       11.8768
  26       11.8768
  27       14.4918
  28       14.4918
  29       15.4884
  30       15.4884
  31       15.9738
  32       18.8102
 
  0.2916667E+00  0.0000000E+00  0.0000000E+00  0.4340278E-03
   1       -4.4689
   2       -1.2006
   3       -0.5495
   4       -0.5495
   5       -0.2304
   6       -0.1928
   7       -0.1928
   8        0.6740
   9        1.2340
  10        1.2340
  11        1.4053
  12        1.4053
  13        1.5992
  14        1.9758
  15        2.1047
  16        2.1047
  17        2.2145
  18        2.2145
  19        2.3330
  20        2.3893
  21        2.6152
  22        2.6152
  23        7.7947
  24        7.7947
  25       11.9893
  26       11.9893
  27       13.8012
  28       13.8012
  29       15.0146
  30       15.0146
  31       17.1011
  32       19.2002
 
  0.3333333E+00  0.0000000E+00  0.0000000E+00  0.4340278E-03
   1       -4.1622
   2       -1.3715
   3       -0.4486
   4       -0.4486
   5       -0.1522
   6       -0.0947
   7       -0.0947
   8        0.5906
   9        1.1890
  10        1.1890
  11        1.3093
  12        1.3093
  13        1.5353
  14        1.9919
  15        2.0073
  16        2.0215
  17        2.0215
  18        2.1123
  19        2.1123
  20        2.3007
  21        2.6153
  22        2.6153
  23        8.2957
  24        8.2957
  25       12.1232
  26       12.1232
  27       13.1197
  28       13.1197
  29       14.5708
  30       14.5708
  31       18.2705
  32       19.6406
 
  0.3750000E+00  0.0000000E+00  0.0000000E+00  0.4340278E-03
   1       -3.8233
   2       -1.6155
   3       -0.3554
   4       -0.3554
   5       -0.0673
   6        0.0173
   7        0.0173
   8        0.5012
   9        0.9826
  10        0.9826
  11        1.3929
  12        1.3929
  13        1.4739
  14        1.7008
  15        1.9433
  16        1.9433
  17        2.0059
  18        2.0059
  19        2.0413
  20        2.2659
  21        2.6153
  22        2.6153
  23        8.8236
  24        8.8236
  25       12.2782
  26       12.2782
  27       12.4513
  28       12.4513
  29       14.1667
  30       14.1667
  31       19.4697
  32       20.1284
 
  0.4166667E+00  0.0000000E+00  0.0000000E+00  0.4340278E-03
   1       -3.4574
   2       -1.9276
   3       -0.2787
   4       -0.2787
   5        0.0230
   6        0.1434
   7        0.1434
   8        0.4075
   9        0.7879
  10        0.7879
  11        1.4212
  12        1.4837
  13        1.4837
  14        1.5136
  15        1.8781
  16        1.8781
  17        1.8976
  18        1.8976
  19        2.0774
  20        2.2293
  21        2.6154
  22        2.6154
  23        9.3758
  24        9.3758
  25       11.7986
  26       11.7986
  27       12.4492
  28       12.4492
  29       13.8137
  30       13.8137
  31       20.6605
  32       20.6775
 
  0.4583333E+00  0.0000000E+00  0.0000000E+00  0.4340278E-03
   1       -3.0719
   2       -2.2892
   3       -0.2278
   4       -0.2278
   5        0.1173
   6        0.2836
   7        0.2836
   8        0.3111
   9        0.6061
  10        0.6061
  11        1.3852
  12        1.4133
  13        1.5810
  14        1.5810
  15        1.7895
  16        1.7895
  17        1.8344
  18        1.8344
  19        2.1149
  20        2.1915
  21        2.6154
  22        2.6154
  23        9.9508
  24        9.9508
  25       11.1634
  26       11.1634
  27       12.6144
  28       12.6144
  29       13.5377
  30       13.5377
  31       21.2339
  32       21.2339
 
  0.5000000E+00  0.0000000E+00  0.0000000E+00  0.2170139E-03
   1       -2.6774
   2       -2.6774
   3       -0.2098
   4       -0.2098
   5        0.2138
   6        0.2138
   7        0.4379
   8        0.4379
   9        0.4379
  10        0.4379
  11        1.3773
  12        1.3773
  13        1.6834
  14        1.6834
  15        1.6834
  16        1.6834
  17        1.8189
  18        1.8189
  19        2.1531
  20        2.1531
  21        2.6155
  22        2.6155
  23       10.5470
  24       10.5470
  25       10.5470
  26       10.5470
  27       12.6975
  28       12.6975
  29       13.4175
  30       13.4175
  31       21.8460
  32       21.8460
 
  0.4166667E-01  0.4166667E-01  0.0000000E+00  0.8680556E-03
   1       -5.4681
   2       -0.9774
   3       -0.9774
   4       -0.9674
   5       -0.4956
   6       -0.4956
   7       -0.4953
   8        0.9679
   9        0.9865
  10        0.9891
  11        1.8551
  12        1.8637
  13        2.4341
  14        2.4385
  15        2.4385
  16        2.5368
  17        2.5629
  18        2.5629
  19        2.6053
  20        2.6053
  21        2.6087
  22        5.5679
  23        5.5679
  24        5.7701
  25       11.6034
  26       11.7806
  27       11.7806
  28       17.1454
  29       17.5533
  30       17.5533
  31       17.6192
  32       17.6192
 
  0.8333333E-01  0.4166667E-01  0.0000000E+00  0.1736111E-02
   1       -5.4028
   2       -0.9771
   3       -0.9461
   4       -0.9365
   5       -0.4777
   6       -0.4766
   7       -0.4764
   8        0.9494
   9        1.0010
  10        1.0047
  11        1.8387
  12        1.8696
  13        2.4045
  14        2.4108
  15        2.4254
  16        2.4276
  17        2.4534
  18        2.5364
  19        2.5775
  20        2.6053
  21        2.6054
  22        5.1899
  23        5.7429
  24        5.9425
  25       11.6260
  26       11.8059
  27       12.2884
  28       16.5979
  29       17.1270
  30       17.3498
  31       17.6476
  32       17.6862
 
  0.1250000E+00  0.4166667E-01  0.0000000E+00  0.1736111E-02
   1       -5.2945
   2       -0.9800
   3       -0.8952
   4       -0.8862
   5       -0.4483
   6       -0.4450
   7       -0.4449
   8        0.9170
   9        1.0272
  10        1.0306
  11        1.8095
  12        1.8818
  13        2.2582
  14        2.2603
  15        2.3726
  16        2.3849
  17        2.4068
  18        2.4955
  19        2.5324
  20        2.6046
  21        2.6053
  22        4.6707
  23        6.0086
  24        6.2068
  25       11.6643
  26       11.8489
  27       13.0272
  28       15.9744
  29       16.5484
  30       16.9582
  31       17.4131
  32       17.8036
 
  0.1666667E+00  0.4166667E-01  0.0000000E+00  0.1736111E-02
   1       -5.1437
   2       -0.9917
   3       -0.8266
   4       -0.8183
   5       -0.4077
   6       -0.4006
   7       -0.4005
   8        0.8721
   9        1.0640
  10        1.0665
  11        1.7697
  12        1.8989
  13        2.0566
  14        2.0578
  15        2.3203
  16        2.3300
  17        2.3681
  18        2.4488
  19        2.4713
  20        2.6044
  21        2.6054
  22        4.0929
  23        6.3424
  24        6.5419
  25       11.7190
  26       11.9104
  27       13.9198
  28       15.3173
  29       15.8959
  30       16.4966
  31       17.0035
  32       18.0192
 
  0.2083333E+00  0.4166667E-01  0.0000000E+00  0.1736111E-02
   1       -4.9514
   2       -1.0209
   3       -0.7428
   4       -0.7356
   5       -0.3565
   6       -0.3434
   7       -0.3431
   8        0.8159
   9        1.1110
  10        1.1122
  11        1.7208
  12        1.8361
  13        1.8409
  14        1.9205
  15        2.2557
  16        2.2643
  17        2.2991
  18        2.3965
  19        2.4081
  20        2.6044
  21        2.6054
  22        3.5156
  23        6.7272
  24        6.9314
  25       11.7910
  26       11.9918
  27       14.6508
  28       14.9168
  29       15.2121
  30       16.0056
  31       16.5236
  32       18.2920
 
  0.2500000E+00  0.4166667E-01  0.0000000E+00  0.1736111E-02
   1       -4.7190
   2       -1.0806
   3       -0.6478
   4       -0.6416
   5       -0.2954
   6       -0.2733
   7       -0.2724
   8        0.7494
   9        1.1669
  10        1.1679
  11        1.6110
  12        1.6185
  13        1.6650
  14        1.9462
  15        2.1812
  16        2.1889
  17        2.1961
  18        2.3100
  19        2.3717
  20        2.6044
  21        2.6055
  22        2.9867
  23        7.1517
  24        7.3640
  25       11.8806
  26       12.0946
  27       13.9890
  28       14.5190
  29       15.5133
  30       15.9884
  31       16.0185
  32       18.6190
 
  0.2916667E+00  0.4166667E-01  0.0000000E+00  0.1736111E-02
   1       -4.4483
   2       -1.1871
   3       -0.5462
   4       -0.5412
   5       -0.2255
   6       -0.1900
   7       -0.1884
   8        0.6740
   9        1.2296
  10        1.2343
  11        1.3887
  12        1.3980
  13        1.6055
  14        1.9756
  15        2.0487
  16        2.1003
  17        2.1072
  18        2.2144
  19        2.3297
  20        2.5616
  21        2.6046
  22        2.6055
  23        7.6081
  24        7.8323
  25       11.9861
  26       12.2204
  27       13.3423
  28       13.8284
  29       15.0385
  30       15.5164
  31       17.1148
  32       18.9968
 
  0.3333333E+00  0.4166667E-01  0.0000000E+00  0.1736111E-02
   1       -4.1420
   2       -1.3572
   3       -0.4445
   4       -0.4404
   5       -0.1476
   6       -0.0935
   7       -0.0907
   8        0.5910
   9        1.1735
  10        1.1840
  11        1.2971
  12        1.3095
  13        1.5483
  14        1.8398
  15        2.0082
  16        2.0179
  17        2.0239
  18        2.1122
  19        2.2274
  20        2.3404
  21        2.6047
  22        2.6055
  23        8.0915
  24        8.3311
  25       12.0893
  26       12.3702
  27       12.7338
  28       13.1470
  29       14.5942
  30       15.0357
  31       18.2799
  32       19.4218
 
  0.3750000E+00  0.4166667E-01  0.0000000E+00  0.1736111E-02
   1       -3.8036
   2       -1.6004
   3       -0.3502
   4       -0.3470
   5       -0.0631
   6        0.0163
   7        0.0207
   8        0.5022
   9        0.9685
  10        0.9795
  11        1.3569
  12        1.3930
  13        1.5095
  14        1.6223
  15        1.9405
  16        1.9454
  17        2.0058
  18        2.0435
  19        2.0696
  20        2.2832
  21        2.6049
  22        2.6055
  23        8.5981
  24        8.8571
  25       11.9432
  26       12.4130
  27       12.4790
  28       12.5428
  29       14.1912
  30       14.5887
  31       19.4565
  32       19.8902
 
  0.4166667E+00  0.4166667E-01  0.0000000E+00  0.1736111E-02
   1       -3.4384
   2       -1.9116
   3       -0.2724
   4       -0.2701
   5        0.0267
   6        0.1398
   7        0.1461
   8        0.4090
   9        0.7754
  10        0.7863
  11        1.3706
  12        1.4639
  13        1.4838
  14        1.5327
  15        1.8762
  16        1.8798
  17        1.8975
  18        1.9378
  19        2.0809
  20        2.2411
  21        2.6051
  22        2.6055
  23        9.1254
  24        9.4078
  25       11.3947
  26       11.8268
  27       12.5325
  28       12.7290
  29       13.8455
  30       14.1859
  31       20.3977
  32       20.4191
 
  0.4583333E+00  0.4166667E-01  0.0000000E+00  0.1736111E-02
   1       -3.0535
   2       -2.2724
   3       -0.2204
   4       -0.2191
   5        0.1204
   6        0.2773
   7        0.2854
   8        0.3132
   9        0.5954
  10        0.6059
  11        1.3511
  12        1.3763
  13        1.5810
  14        1.6120
  15        1.7894
  16        1.8198
  17        1.8334
  18        1.8353
  19        2.1199
  20        2.2003
  21        2.6052
  22        2.6054
  23        9.6712
  24        9.9815
  25       10.8102
  26       11.1922
  27       12.7170
  28       12.8851
  29       13.6054
  30       13.8425
  31       20.9398
  32       21.0333
 
  0.5000000E+00  0.4166667E-01  0.0000000E+00  0.8680556E-03
   1       -2.6598
   2       -2.6598
   3       -0.2016
   4       -0.2016
   5        0.2164
   6        0.2164
   7        0.4292
   8        0.4292
   9        0.4388
  10        0.4388
  11        1.3451
  12        1.3451
  13        1.6833
  14        1.6833
  15        1.7108
  16        1.7108
  17        1.8189
  18        1.8189
  19        2.1598
  20        2.1598
  21        2.6053
  22        2.6053
  23       10.2336
  24       10.2336
  25       10.5767
  26       10.5767
  27       12.8799
  28       12.8799
  29       13.6050
  30       13.6050
  31       21.5117
  32       21.5154
 
  0.8333333E-01  0.8333333E-01  0.0000000E+00  0.8680556E-03
   1       -5.3378
   2       -0.9453
   3       -0.9453
   4       -0.9061
   5       -0.4591
   6       -0.4591
   7       -0.4580
   8        0.9367
   9        1.0101
  10        1.0191
  11        1.8320
  12        1.8671
  13        2.3350
  14        2.3673
  15        2.3673
  16        2.3883
  17        2.4489
  18        2.4489
  19        2.5775
  20        2.5775
  21        2.5910
  22        5.3636
  23        5.3636
  24        6.1053
  25       11.6485
  26       12.3195
  27       12.3195
  28       15.9377
  29       17.2170
  30       17.2170
  31       17.4416
  32       17.4416
 
  0.1250000E+00  0.8333333E-01  0.0000000E+00  0.1736111E-02
   1       -5.2298
   2       -0.9473
   3       -0.8935
   4       -0.8567
   5       -0.4301
   6       -0.4279
   7       -0.4273
   8        0.9085
   9        1.0325
  10        1.0429
  11        1.8082
  12        1.8760
  13        2.1878
  14        2.2085
  15        2.3096
  16        2.3512
  17        2.3913
  18        2.4369
  19        2.5323
  20        2.5774
  21        2.5823
  22        4.8469
  23        5.6236
  24        6.3574
  25       11.6863
  26       12.3720
  27       13.0639
  28       15.2477
  29       16.6345
  30       17.0456
  31       17.3655
  32       17.5934
 
  0.1666667E+00  0.8333333E-01  0.0000000E+00  0.1736111E-02
   1       -5.0796
   2       -0.9577
   3       -0.8236
   4       -0.7900
   5       -0.3901
   6       -0.3843
   7       -0.3840
   8        0.8662
   9        1.0675
  10        1.0757
  11        1.7712
  12        1.8933
  13        2.0036
  14        2.0041
  15        2.2302
  16        2.3006
  17        2.3353
  18        2.4177
  19        2.4711
  20        2.5774
  21        2.5781
  22        4.2781
  23        5.9458
  24        6.6805
  25       11.7395
  26       12.4471
  27       13.9606
  28       14.5552
  29       15.9794
  30       16.5795
  31       17.5706
  32       17.7010
 
  0.2083333E+00  0.8333333E-01  0.0000000E+00  0.1736111E-02
   1       -4.8880
   2       -0.9852
   3       -0.7382
   4       -0.7087
   5       -0.3396
   6       -0.3288
   7       -0.3274
   8        0.8118
   9        1.1135
  10        1.1170
  11        1.7252
  12        1.7839
  13        1.7996
  14        1.9165
  15        2.1265
  16        2.2379
  17        2.2694
  18        2.3912
  19        2.3962
  20        2.5761
  21        2.5773
  22        3.7183
  23        6.3130
  24        7.0593
  25       11.8072
  26       12.5459
  27       13.8762
  28       14.9600
  29       15.2939
  30       16.0842
  31       17.3230
  32       17.8295
 
  0.2500000E+00  0.8333333E-01  0.0000000E+00  0.1736111E-02
   1       -4.6564
   2       -1.0428
   3       -0.6412
   4       -0.6160
   5       -0.2795
   6       -0.2611
   7       -0.2578
   8        0.7471
   9        1.1653
  10        1.1698
  11        1.5605
  12        1.5877
  13        1.6734
  14        1.9446
  15        1.9940
  16        2.1655
  17        2.1943
  18        2.3096
  19        2.3565
  20        2.5751
  21        2.5771
  22        3.2151
  23        6.7141
  24        7.4828
  25       11.8840
  26       12.6700
  27       13.2256
  28       14.6001
  29       15.5881
  30       16.0318
  31       16.8679
  32       18.1391
 
  0.2916667E+00  0.8333333E-01  0.0000000E+00  0.1736111E-02
   1       -4.3868
   2       -1.1470
   3       -0.5373
   4       -0.5166
   5       -0.2106
   6       -0.1813
   7       -0.1750
   8        0.6733
   9        1.2180
  10        1.2356
  11        1.3407
  12        1.3757
  13        1.6210
  14        1.8297
  15        1.9769
  16        2.0869
  17        2.1127
  18        2.2140
  19        2.3101
  20        2.5747
  21        2.5770
  22        2.8097
  23        7.1421
  24        7.9434
  25       11.9350
  26       12.6441
  27       12.8203
  28       13.9094
  29       15.1106
  30       16.3832
  31       17.1541
  32       18.4956
 
  0.3333333E+00  0.8333333E-01  0.0000000E+00  0.1736111E-02
   1       -4.0818
   2       -1.3146
   3       -0.4328
   4       -0.4161
   5       -0.1340
   6       -0.0898
   7       -0.0789
   8        0.5920
   9        1.1289
  10        1.1686
  11        1.2682
  12        1.3105
  13        1.5777
  14        1.6458
  15        2.0069
  16        2.0129
  17        2.0294
  18        2.1117
  19        2.2404
  20        2.5299
  21        2.5746
  22        2.5767
  23        7.5923
  24        8.4359
  25       11.7332
  26       12.3626
  27       12.9960
  28       13.2286
  29       14.6662
  30       15.8977
  31       18.2989
  32       18.8952
 
  0.3750000E+00  0.8333333E-01  0.0000000E+00  0.1736111E-02
   1       -3.7449
   2       -1.5553
   3       -0.3353
   4       -0.3222
   5       -0.0509
   6        0.0135
   7        0.0308
   8        0.5048
   9        0.9278
  10        0.9698
  11        1.3006
  12        1.3936
  13        1.4777
  14        1.5626
  15        1.9320
  16        1.9504
  17        2.0054
  18        2.0521
  19        2.1303
  20        2.3748
  21        2.5748
  22        2.5765
  23        8.0621
  24        8.9566
  25       11.2201
  26       12.4415
  27       12.5615
  28       13.1889
  29       14.2725
  30       15.4297
  31       19.3339
  32       19.3406
 
  0.4166667E+00  0.8333333E-01  0.0000000E+00  0.1736111E-02
   1       -3.3814
   2       -1.8639
   3       -0.2542
   4       -0.2444
   5        0.0375
   6        0.1293
   7        0.1540
   8        0.4134
   9        0.7391
  10        0.7815
  11        1.3008
  12        1.3576
  13        1.4842
  14        1.5949
  15        1.8703
  16        1.8836
  17        1.8971
  18        1.9993
  19        2.0940
  20        2.2930
  21        2.5750
  22        2.5762
  23        8.5496
  24        9.5030
  25       10.6622
  26       11.9108
  27       12.6152
  28       13.3504
  29       13.9841
  30       14.9908
  31       19.8075
  32       20.0141
 
  0.4583333E+00  0.8333333E-01  0.0000000E+00  0.1736111E-02
   1       -2.9985
   2       -2.2221
   3       -0.1988
   4       -0.1934
   5        0.1297
   6        0.2590
   7        0.2909
   8        0.3192
   9        0.5642
  10        0.6051
  11        1.2832
  12        1.2931
  13        1.5811
  14        1.6672
  15        1.7891
  16        1.8303
  17        1.8373
  18        1.8747
  19        2.1383
  20        2.2352
  21        2.5753
  22        2.5759
  23        9.0538
  24       10.0730
  25       10.1110
  26       11.2782
  27       12.8307
  28       13.3007
  29       13.9841
  30       14.5906
  31       20.3117
  32       20.5819
 
  0.5000000E+00  0.8333333E-01  0.0000000E+00  0.8680556E-03
   1       -2.6071
   2       -2.6071
   3       -0.1774
   4       -0.1774
   5        0.2241
   6        0.2241
   7        0.4040
   8        0.4040
   9        0.4414
  10        0.4414
  11        1.2739
  12        1.2739
  13        1.6832
  14        1.6832
  15        1.7630
  16        1.7630
  17        1.8185
  18        1.8185
  19        2.1850
  20        2.1850
  21        2.5756
  22        2.5756
  23        9.5744
  24        9.5744
  25       10.6652
  26       10.6652
  27       13.0724
  28       13.0724
  29       14.2415
  30       14.2415
  31       20.8422
  32       20.8422
 
  0.1250000E+00  0.1250000E+00  0.0000000E+00  0.8680556E-03
   1       -5.1225
   2       -0.8940
   3       -0.8940
   4       -0.8088
   5       -0.3996
   6       -0.3996
   7       -0.3980
   8        0.8874
   9        1.0488
  10        1.0631
  11        1.7957
  12        1.8772
  13        2.0689
  14        2.1334
  15        2.1334
  16        2.3161
  17        2.3901
  18        2.3901
  19        2.5321
  20        2.5321
  21        2.5615
  22        5.1043
  23        5.1043
  24        6.5937
  25       11.7224
  26       13.1256
  27       13.1256
  28       14.5148
  29       16.7766
  30       16.7766
  31       17.1903
  32       17.1903
 
  0.1666667E+00  0.1250000E+00  0.0000000E+00  0.1736111E-02
   1       -4.9731
   2       -0.9022
   3       -0.8219
   4       -0.7440
   5       -0.3606
   6       -0.3570
   7       -0.3568
   8        0.8513
   9        1.0787
  10        1.0908
  11        1.7669
  12        1.8915
  13        1.9113
  14        1.9242
  15        2.0366
  16        2.2680
  17        2.3362
  18        2.3790
  19        2.4708
  20        2.5318
  21        2.5473
  22        4.5379
  23        5.4166
  24        6.9004
  25       11.7706
  26       13.2132
  27       13.7992
  28       14.0289
  29       16.1170
  30       16.7169
  31       16.9726
  32       17.3911
 
  0.2083333E+00  0.1250000E+00  0.0000000E+00  0.1736111E-02
   1       -4.7827
   2       -0.9269
   3       -0.7339
   4       -0.6649
   5       -0.3115
   6       -0.3044
   7       -0.3015
   8        0.8018
   9        1.1213
  10        1.1250
  11        1.7036
  12        1.7267
  13        1.7294
  14        1.9159
  15        1.9173
  16        2.2084
  17        2.2717
  18        2.3573
  19        2.3957
  20        2.5315
  21        2.5386
  22        3.9841
  23        5.7670
  24        7.2642
  25       11.8220
  26       13.1204
  27       13.3276
  28       15.0318
  29       15.4290
  30       16.2150
  31       17.2199
  32       17.6472
 
  0.2500000E+00  0.1250000E+00  0.0000000E+00  0.1736111E-02
   1       -4.5526
   2       -0.9811
   3       -0.6334
   4       -0.5746
   5       -0.2529
   6       -0.2406
   7       -0.2336
   8        0.7409
   9        1.1638
  10        1.1754
  11        1.4824
  12        1.5354
  13        1.6811
  14        1.7755
  15        1.9475
  16        2.1394
  17        2.1977
  18        2.3090
  19        2.3242
  20        2.5311
  21        2.5335
  22        3.4853
  23        6.1457
  24        7.6745
  25       11.8250
  26       12.5367
  27       13.4693
  28       14.7339
  29       15.7137
  30       16.1026
  31       17.5153
  32       17.7496
 
  0.2916667E+00  0.1250000E+00  0.0000000E+00  0.1736111E-02
   1       -4.2848
   2       -1.0814
   3       -0.5255
   4       -0.4770
   5       -0.1859
   6       -0.1664
   7       -0.1530
   8        0.6706
   9        1.2030
  10        1.2397
  11        1.2667
  12        1.3378
  13        1.6167
  14        1.6373
  15        1.9848
  16        2.0644
  17        2.1170
  18        2.2133
  19        2.2775
  20        2.5305
  21        2.5307
  22        3.0722
  23        6.5470
  24        8.1238
  25       11.5436
  26       12.2887
  27       13.6368
  28       14.0431
  29       15.2342
  30       17.2111
  31       17.3193
  32       17.8555
 
  0.3333333E+00  0.1250000E+00  0.0000000E+00  0.1736111E-02
   1       -3.9819
   2       -1.2449
   3       -0.4162
   4       -0.3771
   5       -0.1113
   6       -0.0828
   7       -0.0593
   8        0.5926
   9        1.0601
  10        1.1425
  11        1.2345
  12        1.3134
  13        1.4582
  14        1.6067
  15        1.9882
  16        2.0269
  17        2.0341
  18        2.1111
  19        2.2131
  20        2.5288
  21        2.5302
  22        2.7600
  23        6.9678
  24        8.6067
  25       11.0057
  26       12.3517
  27       13.3631
  28       13.8200
  29       14.7997
  30       16.8582
  31       18.2367
  32       18.2639
 
  0.3750000E+00  0.1250000E+00  0.0000000E+00  0.1736111E-02
   1       -3.6476
   2       -1.4814
   3       -0.3134
   4       -0.2822
   5       -0.0304
   6        0.0096
   7        0.0473
   8        0.5085
   9        0.8649
  10        0.9534
  11        1.2464
  12        1.3255
  13        1.3956
  14        1.6048
  15        1.9172
  16        1.9548
  17        2.0048
  18        2.0733
  19        2.1259
  20        2.5280
  21        2.5296
  22        2.5453
  23        7.4065
  24        9.1193
  25       10.4366
  26       12.5024
  27       12.6977
  28       13.9497
  29       14.4878
  30       16.3956
  31       18.6553
  32       18.9685
 
  0.4166667E+00  0.1250000E+00  0.0000000E+00  0.1736111E-02
   1       -3.2871
   2       -1.7857
   3       -0.2263
   4       -0.2027
   5        0.0555
   6        0.1124
   7        0.1671
   8        0.4201
   9        0.6829
  10        0.7731
  11        1.2345
  12        1.2375
  13        1.4854
  14        1.6409
  15        1.8596
  16        1.8867
  17        1.8967
  18        2.0188
  19        2.1240
  20        2.4065
  21        2.5277
  22        2.5291
  23        7.8629
  24        9.6589
  25        9.8806
  26       12.0493
  27       12.6977
  28       13.7959
  29       14.5334
  30       15.9490
  31       19.1077
  32       19.4934
 
  0.4583333E+00  0.1250000E+00  0.0000000E+00  0.1736111E-02
   1       -2.9078
   2       -2.1395
   3       -0.1649
   4       -0.1515
   5        0.1450
   6        0.2294
   7        0.2998
   8        0.3289
   9        0.5153
  10        0.6034
  11        1.1964