 vasp.4.6.28 25Jul05 complex 
 executed on             LinuxIFC date 2017.01.11  18:51:55
 running on    8 nodes
 distr:  one band on    1 nodes,    8 groups


--------------------------------------------------------------------------------------------------------


 INCAR:
 POTCAR:   PAW_PBE Cu 05Jan2001                   
 POTCAR:   PAW_PBE Cu 05Jan2001                   
   VRHFIN =Cu: d10 p1                                                           
   LEXCH  = PE                                                                  
   EATOM  =  1390.9800 eV,  102.2341 Ry                                         
                                                                                
   TITEL  = PAW_PBE Cu 05Jan2001                                                
   LULTRA =        F    use ultrasoft PP ?                                      
   IUNSCR =        1    unscreen: 0-lin 1-nonlin 2-no                           
   RPACOR =    2.000    partial core radius                                     
   POMASS =   63.546; ZVAL   =   11.000    mass and valenz                      
   RCORE  =    2.300    outmost cutoff radius                                   
   RWIGS  =    2.480; RWIGS  =    1.312    wigner-seitz radius (au A)           
   ENMAX  =  273.214; ENMIN  =  204.910 eV                                      
   RCLOC  =    1.712    cutoff for local pot                                    
   LCOR   =        T    correct aug charges                                     
   LPAW   =        T    paw PP                                                  
   EAUG   =  516.456                                                            
   DEXC   =    -.008                                                            
   RMAX   =    2.789    core radius for proj-oper                               
   RAUG   =    1.300    factor for augmentation sphere                          
   RDEP   =    2.302    radius for radial grids                                 
   QCUT   =   -4.481; QGAM   =    8.962    optimization parameters              
                                                                                
   Description                                                                  
     l     E      TYP  RCUT    TYP  RCUT                                        
     2   .000     23  2.300                                                     
     2   .000     23  2.300                                                     
     0   .000     23  2.300                                                     
     0   .000     23  2.300                                                     
     1  -.200     23  2.300                                                     
     1   .000     23  2.300                                                     
     3   .000      7   .000                                                     
  local pseudopotential read in
  partial core-charges read in
  atomic valenz-charges read in
  non local Contribution for L=           2  read in
    real space projection operators read in
  non local Contribution for L=           2  read in
    real space projection operators read in
  non local Contribution for L=           0  read in
    real space projection operators read in
  non local Contribution for L=           0  read in
    real space projection operators read in
  non local Contribution for L=           1  read in
    real space projection operators read in
  non local Contribution for L=           1  read in
    real space projection operators read in
    PAW grid and wavefunctions read in
 
   number of l-projection  operators is LMAX  =           6
   number of lm-projection operators is LMMAX =          18
 
 PAW_PBE Cu 05Jan2001                   :
 energy of atom  1       EATOM=-1390.9800
 kinetic energy error for atom=    0.0006 (will be added to EATOM!!)
 
 EXHCAR: internal setup
 exchange correlation table for  LEXCH =        8
   RHO(1)=    0.500       N(1)  =     2000
   RHO(2)=  100.500       N(2)  =     4000
 
 POSCAR: Cu                                      
  positions in direct lattice
  velocities in cartesian coordinates
 


--------------------------------------------------------------------------------------------------------


 ion  position               nearest neighbor table
   1  0.000  0.000  0.000-   2 2.52   3 2.52   4 2.52   3 2.52   4 2.52   2 2.52   4 2.52   4 2.52
                             2 2.52   3 2.52   3 2.52   2 2.52
   2  0.500  0.500  0.000-   1 2.52   3 2.52   4 2.52   3 2.52   4 2.52   1 2.52   3 2.52   3 2.52
                             1 2.52   4 2.52   4 2.52   1 2.52
   3  0.500  0.000  0.500-   1 2.52   2 2.52   4 2.52   1 2.52   2 2.52   2 2.52   4 2.52   2 2.52
                             1 2.52   4 2.52   1 2.52   4 2.52
   4  0.000  0.500  0.500-   1 2.52   2 2.52   3 2.52   1 2.52   2 2.52   1 2.52   3 2.52   1 2.52
                             2 2.52   3 2.52   2 2.52   3 2.52
 
  LATTYP: Found a simple cubic cell.
 ALAT       =     3.5640877407
  
  Lattice vectors:
  
 A1 = (   3.5640877407,   0.0000000000,   0.0000000000)
 A2 = (   0.0000000000,   3.5640877407,   0.0000000000)
 A3 = (   0.0000000000,   0.0000000000,   3.5640877407)
 Subroutine PRICEL returns following result:
 
  LATTYP: Found a face centered cubic cell.
 ALAT       =     3.5640877407
  
  Lattice vectors:
  
 A1 = (   1.7820438703,   1.7820438703,   0.0000000000)
 A2 = (   1.7820438703,   0.0000000000,  -1.7820438703)
 A3 = (   0.0000000000,   1.7820438703,  -1.7820438703)
 
   4 primitive cells build up your supercell.
 

Analysis of symmetry for initial positions (statically):

 Routine SETGRP: Setting up the symmetry group for a 
 simple cubic supercell.


 Subroutine GETGRP returns: Found 48 space group operations
 (whereof 48 operations were pure point group operations)
 out of a pool of 48 trial point group operations.


The static configuration has the point symmetry O_h .

Analysis of symmetry for dynamics (positions and initial velocities):

 Subroutine DYNSYM returns: Found 48 space group operations
 (whereof 48 operations were pure point group operations)
 out of a pool of 48 trial space group operations
 (whereof 48 operations were pure point group operations)
 and found also     4 'primitive' translations


The dynamic configuration has the point symmetry O_h .
 
 
 KPOINTS: Automatic mesh                          

Automatic generation of k-mesh.
 
 Subroutine IBZKPT returns following result:
 ===========================================
 
 Found    455 irreducible k-points:
 
 Following reciprocal coordinates:
            Coordinates               Weight
  0.000000  0.000000  0.000000      1.000000
  0.041667  0.000000  0.000000      6.000000
  0.083333  0.000000  0.000000      6.000000
  0.125000  0.000000  0.000000      6.000000
  0.166667  0.000000  0.000000      6.000000
  0.208333  0.000000  0.000000      6.000000
  0.250000  0.000000  0.000000      6.000000
  0.291667  0.000000  0.000000      6.000000
  0.333333  0.000000  0.000000      6.000000
  0.375000  0.000000  0.000000      6.000000
  0.416667  0.000000  0.000000      6.000000
  0.458333  0.000000  0.000000      6.000000
  0.500000  0.000000  0.000000      3.000000
  0.041667  0.041667  0.000000     12.000000
  0.083333  0.041667  0.000000     24.000000
  0.125000  0.041667  0.000000     24.000000
  0.166667  0.041667  0.000000     24.000000
  0.208333  0.041667  0.000000     24.000000
  0.250000  0.041667  0.000000     24.000000
  0.291667  0.041667  0.000000     24.000000
  0.333333  0.041667  0.000000     24.000000
  0.375000  0.041667  0.000000     24.000000
  0.416667  0.041667  0.000000     24.000000
  0.458333  0.041667  0.000000     24.000000
  0.500000  0.041667  0.000000     12.000000
  0.083333  0.083333  0.000000     12.000000
  0.125000  0.083333  0.000000     24.000000
  0.166667  0.083333  0.000000     24.000000
  0.208333  0.083333  0.000000     24.000000
  0.250000  0.083333  0.000000     24.000000
  0.291667  0.083333  0.000000     24.000000
  0.333333  0.083333  0.000000     24.000000
  0.375000  0.083333  0.000000     24.000000
  0.416667  0.083333  0.000000     24.000000
  0.458333  0.083333  0.000000     24.000000
  0.500000  0.083333  0.000000     12.000000
  0.125000  0.125000  0.000000     12.000000
  0.166667  0.125000  0.000000     24.000000
  0.208333  0.125000  0.000000     24.000000
  0.250000  0.125000  0.000000     24.000000
  0.291667  0.125000  0.000000     24.000000
  0.333333  0.125000  0.000000     24.000000
  0.375000  0.125000  0.000000     24.000000
  0.416667  0.125000  0.000000     24.000000
  0.458333  0.125000  0.000000     24.000000
  0.500000  0.125000  0.000000     12.000000
  0.166667  0.166667  0.000000     12.000000
  0.208333  0.166667  0.000000     24.000000
  0.250000  0.166667  0.000000     24.000000
  0.291667  0.166667  0.000000     24.000000
  0.333333  0.166667  0.000000     24.000000
  0.375000  0.166667  0.000000     24.000000
  0.416667  0.166667  0.000000     24.000000
  0.458333  0.166667  0.000000     24.000000
  0.500000  0.166667  0.000000     12.000000
  0.208333  0.208333  0.000000     12.000000
  0.250000  0.208333  0.000000     24.000000
  0.291667  0.208333  0.000000     24.000000
  0.333333  0.208333  0.000000     24.000000
  0.375000  0.208333  0.000000     24.000000
  0.416667  0.208333  0.000000     24.000000
  0.458333  0.208333  0.000000     24.000000
  0.500000  0.208333  0.000000     12.000000
  0.250000  0.250000  0.000000     12.000000
  0.291667  0.250000  0.000000     24.000000
  0.333333  0.250000  0.000000     24.000000
  0.375000  0.250000  0.000000     24.000000
  0.416667  0.250000  0.000000     24.000000
  0.458333  0.250000  0.000000     24.000000
  0.500000  0.250000  0.000000     12.000000
  0.291667  0.291667  0.000000     12.000000
  0.333333  0.291667  0.000000     24.000000
  0.375000  0.291667  0.000000     24.000000
  0.416667  0.291667  0.000000     24.000000
  0.458333  0.291667  0.000000     24.000000
  0.500000  0.291667  0.000000     12.000000
  0.333333  0.333333  0.000000     12.000000
  0.375000  0.333333  0.000000     24.000000
  0.416667  0.333333  0.000000     24.000000
  0.458333  0.333333  0.000000     24.000000
  0.500000  0.333333  0.000000     12.000000
  0.375000  0.375000  0.000000     12.000000
  0.416667  0.375000  0.000000     24.000000
  0.458333  0.375000  0.000000     24.000000
  0.500000  0.375000  0.000000     12.000000
  0.416667  0.416667  0.000000     12.000000
  0.458333  0.416667  0.000000     24.000000
  0.500000  0.416667  0.000000     12.000000
  0.458333  0.458333  0.000000     12.000000
  0.500000  0.458333  0.000000     12.000000
  0.500000  0.500000  0.000000      3.000000
  0.041667  0.041667  0.041667      8.000000
  0.083333  0.041667  0.041667     24.000000
  0.125000  0.041667  0.041667     24.000000
  0.166667  0.041667  0.041667     24.000000
  0.208333  0.041667  0.041667     24.000000
  0.250000  0.041667  0.041667     24.000000
  0.291667  0.041667  0.041667     24.000000
  0.333333  0.041667  0.041667     24.000000
  0.375000  0.041667  0.041667     24.000000
  0.416667  0.041667  0.041667     24.000000
  0.458333  0.041667  0.041667     24.000000
  0.500000  0.041667  0.041667     12.000000
  0.083333  0.083333  0.041667     24.000000
  0.125000  0.083333  0.041667     48.000000
  0.166667  0.083333  0.041667     48.000000
  0.208333  0.083333  0.041667     48.000000
  0.250000  0.083333  0.041667     48.000000
  0.291667  0.083333  0.041667     48.000000
  0.333333  0.083333  0.041667     48.000000
  0.375000  0.083333  0.041667     48.000000
  0.416667  0.083333  0.041667     48.000000
  0.458333  0.083333  0.041667     48.000000
  0.500000  0.083333  0.041667     24.000000
  0.125000  0.125000  0.041667     24.000000
  0.166667  0.125000  0.041667     48.000000
  0.208333  0.125000  0.041667     48.000000
  0.250000  0.125000  0.041667     48.000000
  0.291667  0.125000  0.041667     48.000000
  0.333333  0.125000  0.041667     48.000000
  0.375000  0.125000  0.041667     48.000000
  0.416667  0.125000  0.041667     48.000000
  0.458333  0.125000  0.041667     48.000000
  0.500000  0.125000  0.041667     24.000000
  0.166667  0.166667  0.041667     24.000000
  0.208333  0.166667  0.041667     48.000000
  0.250000  0.166667  0.041667     48.000000
  0.291667  0.166667  0.041667     48.000000
  0.333333  0.166667  0.041667     48.000000
  0.375000  0.166667  0.041667     48.000000
  0.416667  0.166667  0.041667     48.000000
  0.458333  0.166667  0.041667     48.000000
  0.500000  0.166667  0.041667     24.000000
  0.208333  0.208333  0.041667     24.000000
  0.250000  0.208333  0.041667     48.000000
  0.291667  0.208333  0.041667     48.000000
  0.333333  0.208333  0.041667     48.000000
  0.375000  0.208333  0.041667     48.000000
  0.416667  0.208333  0.041667     48.000000
  0.458333  0.208333  0.041667     48.000000
  0.500000  0.208333  0.041667     24.000000
  0.250000  0.250000  0.041667     24.000000
  0.291667  0.250000  0.041667     48.000000
  0.333333  0.250000  0.041667     48.000000
  0.375000  0.250000  0.041667     48.000000
  0.416667  0.250000  0.041667     48.000000
  0.458333  0.250000  0.041667     48.000000
  0.500000  0.250000  0.041667     24.000000
  0.291667  0.291667  0.041667     24.000000
  0.333333  0.291667  0.041667     48.000000
  0.375000  0.291667  0.041667     48.000000
  0.416667  0.291667  0.041667     48.000000
  0.458333  0.291667  0.041667     48.000000
  0.500000  0.291667  0.041667     24.000000
  0.333333  0.333333  0.041667     24.000000
  0.375000  0.333333  0.041667     48.000000
  0.416667  0.333333  0.041667     48.000000
  0.458333  0.333333  0.041667     48.000000
  0.500000  0.333333  0.041667     24.000000
  0.375000  0.375000  0.041667     24.000000
  0.416667  0.375000  0.041667     48.000000
  0.458333  0.375000  0.041667     48.000000
  0.500000  0.375000  0.041667     24.000000
  0.416667  0.416667  0.041667     24.000000
  0.458333  0.416667  0.041667     48.000000
  0.500000  0.416667  0.041667     24.000000
  0.458333  0.458333  0.041667     24.000000
  0.500000  0.458333  0.041667     24.000000
  0.500000  0.500000  0.041667      6.000000
  0.083333  0.083333  0.083333      8.000000
  0.125000  0.083333  0.083333     24.000000
  0.166667  0.083333  0.083333     24.000000
  0.208333  0.083333  0.083333     24.000000
  0.250000  0.083333  0.083333     24.000000
  0.291667  0.083333  0.083333     24.000000
  0.333333  0.083333  0.083333     24.000000
  0.375000  0.083333  0.083333     24.000000
  0.416667  0.083333  0.083333     24.000000
  0.458333  0.083333  0.083333     24.000000
  0.500000  0.083333  0.083333     12.000000
  0.125000  0.125000  0.083333     24.000000
  0.166667  0.125000  0.083333     48.000000
  0.208333  0.125000  0.083333     48.000000
  0.250000  0.125000  0.083333     48.000000
  0.291667  0.125000  0.083333     48.000000
  0.333333  0.125000  0.083333     48.000000
  0.375000  0.125000  0.083333     48.000000
  0.416667  0.125000  0.083333     48.000000
  0.458333  0.125000  0.083333     48.000000
  0.500000  0.125000  0.083333     24.000000
  0.166667  0.166667  0.083333     24.000000
  0.208333  0.166667  0.083333     48.000000
  0.250000  0.166667  0.083333     48.000000
  0.291667  0.166667  0.083333     48.000000
  0.333333  0.166667  0.083333     48.000000
  0.375000  0.166667  0.083333     48.000000
  0.416667  0.166667  0.083333     48.000000
  0.458333  0.166667  0.083333     48.000000
  0.500000  0.166667  0.083333     24.000000
  0.208333  0.208333  0.083333     24.000000
  0.250000  0.208333  0.083333     48.000000
  0.291667  0.208333  0.083333     48.000000
  0.333333  0.208333  0.083333     48.000000
  0.375000  0.208333  0.083333     48.000000
  0.416667  0.208333  0.083333     48.000000
  0.458333  0.208333  0.083333     48.000000
  0.500000  0.208333  0.083333     24.000000
  0.250000  0.250000  0.083333     24.000000
  0.291667  0.250000  0.083333     48.000000
  0.333333  0.250000  0.083333     48.000000
  0.375000  0.250000  0.083333     48.000000
  0.416667  0.250000  0.083333     48.000000
  0.458333  0.250000  0.083333     48.000000
  0.500000  0.250000  0.083333     24.000000
  0.291667  0.291667  0.083333     24.000000
  0.333333  0.291667  0.083333     48.000000
  0.375000  0.291667  0.083333     48.000000
  0.416667  0.291667  0.083333     48.000000
  0.458333  0.291667  0.083333     48.000000
  0.500000  0.291667  0.083333     24.000000
  0.333333  0.333333  0.083333     24.000000
  0.375000  0.333333  0.083333     48.000000
  0.416667  0.333333  0.083333     48.000000
  0.458333  0.333333  0.083333     48.000000
  0.500000  0.333333  0.083333     24.000000
  0.375000  0.375000  0.083333     24.000000
  0.416667  0.375000  0.083333     48.000000
  0.458333  0.375000  0.083333     48.000000
  0.500000  0.375000  0.083333     24.000000
  0.416667  0.416667  0.083333     24.000000
  0.458333  0.416667  0.083333     48.000000
  0.500000  0.416667  0.083333     24.000000
  0.458333  0.458333  0.083333     24.000000
  0.500000  0.458333  0.083333     24.000000
  0.500000  0.500000  0.083333      6.000000
  0.125000  0.125000  0.125000      8.000000
  0.166667  0.125000  0.125000     24.000000
  0.208333  0.125000  0.125000     24.000000
  0.250000  0.125000  0.125000     24.000000
  0.291667  0.125000  0.125000     24.000000
  0.333333  0.125000  0.125000     24.000000
  0.375000  0.125000  0.125000     24.000000
  0.416667  0.125000  0.125000     24.000000
  0.458333  0.125000  0.125000     24.000000
  0.500000  0.125000  0.125000     12.000000
  0.166667  0.166667  0.125000     24.000000
  0.208333  0.166667  0.125000     48.000000
  0.250000  0.166667  0.125000     48.000000
  0.291667  0.166667  0.125000     48.000000
  0.333333  0.166667  0.125000     48.000000
  0.375000  0.166667  0.125000     48.000000
  0.416667  0.166667  0.125000     48.000000
  0.458333  0.166667  0.125000     48.000000
  0.500000  0.166667  0.125000     24.000000
  0.208333  0.208333  0.125000     24.000000
  0.250000  0.208333  0.125000     48.000000
  0.291667  0.208333  0.125000     48.000000
  0.333333  0.208333  0.125000     48.000000
  0.375000  0.208333  0.125000     48.000000
  0.416667  0.208333  0.125000     48.000000
  0.458333  0.208333  0.125000     48.000000
  0.500000  0.208333  0.125000     24.000000
  0.250000  0.250000  0.125000     24.000000
  0.291667  0.250000  0.125000     48.000000
  0.333333  0.250000  0.125000     48.000000
  0.375000  0.250000  0.125000     48.000000
  0.416667  0.250000  0.125000     48.000000
  0.458333  0.250000  0.125000     48.000000
  0.500000  0.250000  0.125000     24.000000
  0.291667  0.291667  0.125000     24.000000
  0.333333  0.291667  0.125000     48.000000
  0.375000  0.291667  0.125000     48.000000
  0.416667  0.291667  0.125000     48.000000
  0.458333  0.291667  0.125000     48.000000
  0.500000  0.291667  0.125000     24.000000
  0.333333  0.333333  0.125000     24.000000
  0.375000  0.333333  0.125000     48.000000
  0.416667  0.333333  0.125000     48.000000
  0.458333  0.333333  0.125000     48.000000
  0.500000  0.333333  0.125000     24.000000
  0.375000  0.375000  0.125000     24.000000
  0.416667  0.375000  0.125000     48.000000
  0.458333  0.375000  0.125000     48.000000
  0.500000  0.375000  0.125000     24.000000
  0.416667  0.416667  0.125000     24.000000
  0.458333  0.416667  0.125000     48.000000
  0.500000  0.416667  0.125000     24.000000
  0.458333  0.458333  0.125000     24.000000
  0.500000  0.458333  0.125000     24.000000
  0.500000  0.500000  0.125000      6.000000
  0.166667  0.166667  0.166667      8.000000
  0.208333  0.166667  0.166667     24.000000
  0.250000  0.166667  0.166667     24.000000
  0.291667  0.166667  0.166667     24.000000
  0.333333  0.166667  0.166667     24.000000
  0.375000  0.166667  0.166667     24.000000
  0.416667  0.166667  0.166667     24.000000
  0.458333  0.166667  0.166667     24.000000
  0.500000  0.166667  0.166667     12.000000
  0.208333  0.208333  0.166667     24.000000
  0.250000  0.208333  0.166667     48.000000
  0.291667  0.208333  0.166667     48.000000
  0.333333  0.208333  0.166667     48.000000
  0.375000  0.208333  0.166667     48.000000
  0.416667  0.208333  0.166667     48.000000
  0.458333  0.208333  0.166667     48.000000
  0.500000  0.208333  0.166667     24.000000
  0.250000  0.250000  0.166667     24.000000
  0.291667  0.250000  0.166667     48.000000
  0.333333  0.250000  0.166667     48.000000
  0.375000  0.250000  0.166667     48.000000
  0.416667  0.250000  0.166667     48.000000
  0.458333  0.250000  0.166667     48.000000
  0.500000  0.250000  0.166667     24.000000
  0.291667  0.291667  0.166667     24.000000
  0.333333  0.291667  0.166667     48.000000
  0.375000  0.291667  0.166667     48.000000
  0.416667  0.291667  0.166667     48.000000
  0.458333  0.291667  0.166667     48.000000
  0.500000  0.291667  0.166667     24.000000
  0.333333  0.333333  0.166667     24.000000
  0.375000  0.333333  0.166667     48.000000
  0.416667  0.333333  0.166667     48.000000
  0.458333  0.333333  0.166667     48.000000
  0.500000  0.333333  0.166667     24.000000
  0.375000  0.375000  0.166667     24.000000
  0.416667  0.375000  0.166667     48.000000
  0.458333  0.375000  0.166667     48.000000
  0.500000  0.375000  0.166667     24.000000
  0.416667  0.416667  0.166667     24.000000
  0.458333  0.416667  0.166667     48.000000
  0.500000  0.416667  0.166667     24.000000
  0.458333  0.458333  0.166667     24.000000
  0.500000  0.458333  0.166667     24.000000
  0.500000  0.500000  0.166667      6.000000
  0.208333  0.208333  0.208333      8.000000
  0.250000  0.208333  0.208333     24.000000
  0.291667  0.208333  0.208333     24.000000
  0.333333  0.208333  0.208333     24.000000
  0.375000  0.208333  0.208333     24.000000
  0.416667  0.208333  0.208333     24.000000
  0.458333  0.208333  0.208333     24.000000
  0.500000  0.208333  0.208333     12.000000
  0.250000  0.250000  0.208333     24.000000
  0.291667  0.250000  0.208333     48.000000
  0.333333  0.250000  0.208333     48.000000
  0.375000  0.250000  0.208333     48.000000
  0.416667  0.250000  0.208333     48.000000
  0.458333  0.250000  0.208333     48.000000
  0.500000  0.250000  0.208333     24.000000
  0.291667  0.291667  0.208333     24.000000
  0.333333  0.291667  0.208333     48.000000
  0.375000  0.291667  0.208333     48.000000
  0.416667  0.291667  0.208333     48.000000
  0.458333  0.291667  0.208333     48.000000
  0.500000  0.291667  0.208333     24.000000
  0.333333  0.333333  0.208333     24.000000
  0.375000  0.333333  0.208333     48.000000
  0.416667  0.333333  0.208333     48.000000
  0.458333  0.333333  0.208333     48.000000
  0.500000  0.333333  0.208333     24.000000
  0.375000  0.375000  0.208333     24.000000
  0.416667  0.375000  0.208333     48.000000
  0.458333  0.375000  0.208333     48.000000
  0.500000  0.375000  0.208333     24.000000
  0.416667  0.416667  0.208333     24.000000
  0.458333  0.416667  0.208333     48.000000
  0.500000  0.416667  0.208333     24.000000
  0.458333  0.458333  0.208333     24.000000
  0.500000  0.458333  0.208333     24.000000
  0.500000  0.500000  0.208333      6.000000
  0.250000  0.250000  0.250000      8.000000
  0.291667  0.250000  0.250000     24.000000
  0.333333  0.250000  0.250000     24.000000
  0.375000  0.250000  0.250000     24.000000
  0.416667  0.250000  0.250000     24.000000
  0.458333  0.250000  0.250000     24.000000
  0.500000  0.250000  0.250000     12.000000
  0.291667  0.291667  0.250000     24.000000
  0.333333  0.291667  0.250000     48.000000
  0.375000  0.291667  0.250000     48.000000
  0.416667  0.291667  0.250000     48.000000
  0.458333  0.291667  0.250000     48.000000
  0.500000  0.291667  0.250000     24.000000
  0.333333  0.333333  0.250000     24.000000
  0.375000  0.333333  0.250000     48.000000
  0.416667  0.333333  0.250000     48.000000
  0.458333  0.333333  0.250000     48.000000
  0.500000  0.333333  0.250000     24.000000
  0.375000  0.375000  0.250000     24.000000
  0.416667  0.375000  0.250000     48.000000
  0.458333  0.375000  0.250000     48.000000
  0.500000  0.375000  0.250000     24.000000
  0.416667  0.416667  0.250000     24.000000
  0.458333  0.416667  0.250000     48.000000
  0.500000  0.416667  0.250000     24.000000
  0.458333  0.458333  0.250000     24.000000
  0.500000  0.458333  0.250000     24.000000
  0.500000  0.500000  0.250000      6.000000
  0.291667  0.291667  0.291667      8.000000
  0.333333  0.291667  0.291667     24.000000
  0.375000  0.291667  0.291667     24.000000
  0.416667  0.291667  0.291667     24.000000
  0.458333  0.291667  0.291667     24.000000
  0.500000  0.291667  0.291667     12.000000
  0.333333  0.333333  0.291667     24.000000
  0.375000  0.333333  0.291667     48.000000
  0.416667  0.333333  0.291667     48.000000
  0.458333  0.333333  0.291667     48.000000
  0.500000  0.333333  0.291667     24.000000
  0.375000  0.375000  0.291667     24.000000
  0.416667  0.375000  0.291667     48.000000
  0.458333  0.375000  0.291667     48.000000
  0.500000  0.375000  0.291667     24.000000
  0.416667  0.416667  0.291667     24.000000
  0.458333  0.416667  0.291667     48.000000
  0.500000  0.416667  0.291667     24.000000
  0.458333  0.458333  0.291667     24.000000
  0.500000  0.458333  0.291667     24.000000
  0.500000  0.500000  0.291667      6.000000
  0.333333  0.333333  0.333333      8.000000
  0.375000  0.333333  0.333333     24.000000
  0.416667  0.333333  0.333333     24.000000
  0.458333  0.333333  0.333333     24.000000
  0.500000  0.333333  0.333333     12.000000
  0.375000  0.375000  0.333333     24.000000
  0.416667  0.375000  0.333333     48.000000
  0.458333  0.375000  0.333333     48.000000
  0.500000  0.375000  0.333333     24.000000
  0.416667  0.416667  0.333333     24.000000
  0.458333  0.416667  0.333333     48.000000
  0.500000  0.416667  0.333333     24.000000
  0.458333  0.458333  0.333333     24.000000
  0.500000  0.458333  0.333333     24.000000
  0.500000  0.500000  0.333333      6.000000
  0.375000  0.375000  0.375000      8.000000
  0.416667  0.375000  0.375000     24.000000
  0.458333  0.375000  0.375000     24.000000
  0.500000  0.375000  0.375000     12.000000
  0.416667  0.416667  0.375000     24.000000
  0.458333  0.416667  0.375000     48.000000
  0.500000  0.416667  0.375000     24.000000
  0.458333  0.458333  0.375000     24.000000
  0.500000  0.458333  0.375000     24.000000
  0.500000  0.500000  0.375000      6.000000
  0.416667  0.416667  0.416667      8.000000
  0.458333  0.416667  0.416667     24.000000
  0.500000  0.416667  0.416667     12.000000
  0.458333  0.458333  0.416667     24.000000
  0.500000  0.458333  0.416667     24.000000
  0.500000  0.500000  0.416667      6.000000
  0.458333  0.458333  0.458333      8.000000
  0.500000  0.458333  0.458333     12.000000
  0.500000  0.500000  0.458333      6.000000
  0.500000  0.500000  0.500000      1.000000
 
 Following cartesian coordinates:
            Coordinates               Weight
  0.000000  0.000000  0.000000      1.000000
  0.011457  0.000000  0.000000      6.000000
  0.022914  0.000000  0.000000      6.000000
  0.034371  0.000000  0.000000      6.000000
  0.045828  0.000000  0.000000      6.000000
  0.057284  0.000000  0.000000      6.000000
  0.068741  0.000000  0.000000      6.000000
  0.080198  0.000000  0.000000      6.000000
  0.091655  0.000000  0.000000      6.000000
  0.103112  0.000000  0.000000      6.000000
  0.114569  0.000000  0.000000      6.000000
  0.126026  0.000000  0.000000      6.000000
  0.137483  0.000000  0.000000      3.000000
  0.011457  0.011457  0.000000     12.000000
  0.022914  0.011457  0.000000     24.000000
  0.034371  0.011457  0.000000     24.000000
  0.045828  0.011457  0.000000     24.000000
  0.057284  0.011457  0.000000     24.000000
  0.068741  0.011457  0.000000     24.000000
  0.080198  0.011457  0.000000     24.000000
  0.091655  0.011457  0.000000     24.000000
  0.103112  0.011457  0.000000     24.000000
  0.114569  0.011457  0.000000     24.000000
  0.126026  0.011457  0.000000     24.000000
  0.137483  0.011457  0.000000     12.000000
  0.022914  0.022914  0.000000     12.000000
  0.034371  0.022914  0.000000     24.000000
  0.045828  0.022914  0.000000     24.000000
  0.057284  0.022914  0.000000     24.000000
  0.068741  0.022914  0.000000     24.000000
  0.080198  0.022914  0.000000     24.000000
  0.091655  0.022914  0.000000     24.000000
  0.103112  0.022914  0.000000     24.000000
  0.114569  0.022914  0.000000     24.000000
  0.126026  0.022914  0.000000     24.000000
  0.137483  0.022914  0.000000     12.000000
  0.034371  0.034371  0.000000     12.000000
  0.045828  0.034371  0.000000     24.000000
  0.057284  0.034371  0.000000     24.000000
  0.068741  0.034371  0.000000     24.000000
  0.080198  0.034371  0.000000     24.000000
  0.091655  0.034371  0.000000     24.000000
  0.103112  0.034371  0.000000     24.000000
  0.114569  0.034371  0.000000     24.000000
  0.126026  0.034371  0.000000     24.000000
  0.137483  0.034371  0.000000     12.000000
  0.045828  0.045828  0.000000     12.000000
  0.057284  0.045828  0.000000     24.000000
  0.068741  0.045828  0.000000     24.000000
  0.080198  0.045828  0.000000     24.000000
  0.091655  0.045828  0.000000     24.000000
  0.103112  0.045828  0.000000     24.000000
  0.114569  0.045828  0.000000     24.000000
  0.126026  0.045828  0.000000     24.000000
  0.137483  0.045828  0.000000     12.000000
  0.057284  0.057284  0.000000     12.000000
  0.068741  0.057284  0.000000     24.000000
  0.080198  0.057284  0.000000     24.000000
  0.091655  0.057284  0.000000     24.000000
  0.103112  0.057284  0.000000     24.000000
  0.114569  0.057284  0.000000     24.000000
  0.126026  0.057284  0.000000     24.000000
  0.137483  0.057284  0.000000     12.000000
  0.068741  0.068741  0.000000     12.000000
  0.080198  0.068741  0.000000     24.000000
  0.091655  0.068741  0.000000     24.000000
  0.103112  0.068741  0.000000     24.000000
  0.114569  0.068741  0.000000     24.000000
  0.126026  0.068741  0.000000     24.000000
  0.137483  0.068741  0.000000     12.000000
  0.080198  0.080198  0.000000     12.000000
  0.091655  0.080198  0.000000     24.000000
  0.103112  0.080198  0.000000     24.000000
  0.114569  0.080198  0.000000     24.000000
  0.126026  0.080198  0.000000     24.000000
  0.137483  0.080198  0.000000     12.000000
  0.091655  0.091655  0.000000     12.000000
  0.103112  0.091655  0.000000     24.000000
  0.114569  0.091655  0.000000     24.000000
  0.126026  0.091655  0.000000     24.000000
  0.137483  0.091655  0.000000     12.000000
  0.103112  0.103112  0.000000     12.000000
  0.114569  0.103112  0.000000     24.000000
  0.126026  0.103112  0.000000     24.000000
  0.137483  0.103112  0.000000     12.000000
  0.114569  0.114569  0.000000     12.000000
  0.126026  0.114569  0.000000     24.000000
  0.137483  0.114569  0.000000     12.000000
  0.126026  0.126026  0.000000     12.000000
  0.137483  0.126026  0.000000     12.000000
  0.137483  0.137483  0.000000      3.000000
  0.011457  0.011457  0.011457      8.000000
  0.022914  0.011457  0.011457     24.000000
  0.034371  0.011457  0.011457     24.000000
  0.045828  0.011457  0.011457     24.000000
  0.057284  0.011457  0.011457     24.000000
  0.068741  0.011457  0.011457     24.000000
  0.080198  0.011457  0.011457     24.000000
  0.091655  0.011457  0.011457     24.000000
  0.103112  0.011457  0.011457     24.000000
  0.114569  0.011457  0.011457     24.000000
  0.126026  0.011457  0.011457     24.000000
  0.137483  0.011457  0.011457     12.000000
  0.022914  0.022914  0.011457     24.000000
  0.034371  0.022914  0.011457     48.000000
  0.045828  0.022914  0.011457     48.000000
  0.057284  0.022914  0.011457     48.000000
  0.068741  0.022914  0.011457     48.000000
  0.080198  0.022914  0.011457     48.000000
  0.091655  0.022914  0.011457     48.000000
  0.103112  0.022914  0.011457     48.000000
  0.114569  0.022914  0.011457     48.000000
  0.126026  0.022914  0.011457     48.000000
  0.137483  0.022914  0.011457     24.000000
  0.034371  0.034371  0.011457     24.000000
  0.045828  0.034371  0.011457     48.000000
  0.057284  0.034371  0.011457     48.000000
  0.068741  0.034371  0.011457     48.000000
  0.080198  0.034371  0.011457     48.000000
  0.091655  0.034371  0.011457     48.000000
  0.103112  0.034371  0.011457     48.000000
  0.114569  0.034371  0.011457     48.000000
  0.126026  0.034371  0.011457     48.000000
  0.137483  0.034371  0.011457     24.000000
  0.045828  0.045828  0.011457     24.000000
  0.057284  0.045828  0.011457     48.000000
  0.068741  0.045828  0.011457     48.000000
  0.080198  0.045828  0.011457     48.000000
  0.091655  0.045828  0.011457     48.000000
  0.103112  0.045828  0.011457     48.000000
  0.114569  0.045828  0.011457     48.000000
  0.126026  0.045828  0.011457     48.000000
  0.137483  0.045828  0.011457     24.000000
  0.057284  0.057284  0.011457     24.000000
  0.068741  0.057284  0.011457     48.000000
  0.080198  0.057284  0.011457     48.000000
  0.091655  0.057284  0.011457     48.000000
  0.103112  0.057284  0.011457     48.000000
  0.114569  0.057284  0.011457     48.000000
  0.126026  0.057284  0.011457     48.000000
  0.137483  0.057284  0.011457     24.000000
  0.068741  0.068741  0.011457     24.000000
  0.080198  0.068741  0.011457     48.000000
  0.091655  0.068741  0.011457     48.000000
  0.103112  0.068741  0.011457     48.000000
  0.114569  0.068741  0.011457     48.000000
  0.126026  0.068741  0.011457     48.000000
  0.137483  0.068741  0.011457     24.000000
  0.080198  0.080198  0.011457     24.000000
  0.091655  0.080198  0.011457     48.000000
  0.103112  0.080198  0.011457     48.000000
  0.114569  0.080198  0.011457     48.000000
  0.126026  0.080198  0.011457     48.000000
  0.137483  0.080198  0.011457     24.000000
  0.091655  0.091655  0.011457     24.000000
  0.103112  0.091655  0.011457     48.000000
  0.114569  0.091655  0.011457     48.000000
  0.126026  0.091655  0.011457     48.000000
  0.137483  0.091655  0.011457     24.000000
  0.103112  0.103112  0.011457     24.000000
  0.114569  0.103112  0.011457     48.000000
  0.126026  0.103112  0.011457     48.000000
  0.137483  0.103112  0.011457     24.000000
  0.114569  0.114569  0.011457     24.000000
  0.126026  0.114569  0.011457     48.000000
  0.137483  0.114569  0.011457     24.000000
  0.126026  0.126026  0.011457     24.000000
  0.137483  0.126026  0.011457     24.000000
  0.137483  0.137483  0.011457      6.000000
  0.022914  0.022914  0.022914      8.000000
  0.034371  0.022914  0.022914     24.000000
  0.045828  0.022914  0.022914     24.000000
  0.057284  0.022914  0.022914     24.000000
  0.068741  0.022914  0.022914     24.000000
  0.080198  0.022914  0.022914     24.000000
  0.091655  0.022914  0.022914     24.000000
  0.103112  0.022914  0.022914     24.000000
  0.114569  0.022914  0.022914     24.000000
  0.126026  0.022914  0.022914     24.000000
  0.137483  0.022914  0.022914     12.000000
  0.034371  0.034371  0.022914     24.000000
  0.045828  0.034371  0.022914     48.000000
  0.057284  0.034371  0.022914     48.000000
  0.068741  0.034371  0.022914     48.000000
  0.080198  0.034371  0.022914     48.000000
  0.091655  0.034371  0.022914     48.000000
  0.103112  0.034371  0.022914     48.000000
  0.114569  0.034371  0.022914     48.000000
  0.126026  0.034371  0.022914     48.000000
  0.137483  0.034371  0.022914     24.000000
  0.045828  0.045828  0.022914     24.000000
  0.057284  0.045828  0.022914     48.000000
  0.068741  0.045828  0.022914     48.000000
  0.080198  0.045828  0.022914     48.000000
  0.091655  0.045828  0.022914     48.000000
  0.103112  0.045828  0.022914     48.000000
  0.114569  0.045828  0.022914     48.000000
  0.126026  0.045828  0.022914     48.000000
  0.137483  0.045828  0.022914     24.000000
  0.057284  0.057284  0.022914     24.000000
  0.068741  0.057284  0.022914     48.000000
  0.080198  0.057284  0.022914     48.000000
  0.091655  0.057284  0.022914     48.000000
  0.103112  0.057284  0.022914     48.000000
  0.114569  0.057284  0.022914     48.000000
  0.126026  0.057284  0.022914     48.000000
  0.137483  0.057284  0.022914     24.000000
  0.068741  0.068741  0.022914     24.000000
  0.080198  0.068741  0.022914     48.000000
  0.091655  0.068741  0.022914     48.000000
  0.103112  0.068741  0.022914     48.000000
  0.114569  0.068741  0.022914     48.000000
  0.126026  0.068741  0.022914     48.000000
  0.137483  0.068741  0.022914     24.000000
  0.080198  0.080198  0.022914     24.000000
  0.091655  0.080198  0.022914     48.000000
  0.103112  0.080198  0.022914     48.000000
  0.114569  0.080198  0.022914     48.000000
  0.126026  0.080198  0.022914     48.000000
  0.137483  0.080198  0.022914     24.000000
  0.091655  0.091655  0.022914     24.000000
  0.103112  0.091655  0.022914     48.000000
  0.114569  0.091655  0.022914     48.000000
  0.126026  0.091655  0.022914     48.000000
  0.137483  0.091655  0.022914     24.000000
  0.103112  0.103112  0.022914     24.000000
  0.114569  0.103112  0.022914     48.000000
  0.126026  0.103112  0.022914     48.000000
  0.137483  0.103112  0.022914     24.000000
  0.114569  0.114569  0.022914     24.000000
  0.126026  0.114569  0.022914     48.000000
  0.137483  0.114569  0.022914     24.000000
  0.126026  0.126026  0.022914     24.000000
  0.137483  0.126026  0.022914     24.000000
  0.137483  0.137483  0.022914      6.000000
  0.034371  0.034371  0.034371      8.000000
  0.045828  0.034371  0.034371     24.000000
  0.057284  0.034371  0.034371     24.000000
  0.068741  0.034371  0.034371     24.000000
  0.080198  0.034371  0.034371     24.000000
  0.091655  0.034371  0.034371     24.000000
  0.103112  0.034371  0.034371     24.000000
  0.114569  0.034371  0.034371     24.000000
  0.126026  0.034371  0.034371     24.000000
  0.137483  0.034371  0.034371     12.000000
  0.045828  0.045828  0.034371     24.000000
  0.057284  0.045828  0.034371     48.000000
  0.068741  0.045828  0.034371     48.000000
  0.080198  0.045828  0.034371     48.000000
  0.091655  0.045828  0.034371     48.000000
  0.103112  0.045828  0.034371     48.000000
  0.114569  0.045828  0.034371     48.000000
  0.126026  0.045828  0.034371     48.000000
  0.137483  0.045828  0.034371     24.000000
  0.057284  0.057284  0.034371     24.000000
  0.068741  0.057284  0.034371     48.000000
  0.080198  0.057284  0.034371     48.000000
  0.091655  0.057284  0.034371     48.000000
  0.103112  0.057284  0.034371     48.000000
  0.114569  0.057284  0.034371     48.000000
  0.126026  0.057284  0.034371     48.000000
  0.137483  0.057284  0.034371     24.000000
  0.068741  0.068741  0.034371     24.000000
  0.080198  0.068741  0.034371     48.000000
  0.091655  0.068741  0.034371     48.000000
  0.103112  0.068741  0.034371     48.000000
  0.114569  0.068741  0.034371     48.000000
  0.126026  0.068741  0.034371     48.000000
  0.137483  0.068741  0.034371     24.000000
  0.080198  0.080198  0.034371     24.000000
  0.091655  0.080198  0.034371     48.000000
  0.103112  0.080198  0.034371     48.000000
  0.114569  0.080198  0.034371     48.000000
  0.126026  0.080198  0.034371     48.000000
  0.137483  0.080198  0.034371     24.000000
  0.091655  0.091655  0.034371     24.000000
  0.103112  0.091655  0.034371     48.000000
  0.114569  0.091655  0.034371     48.000000
  0.126026  0.091655  0.034371     48.000000
  0.137483  0.091655  0.034371     24.000000
  0.103112  0.103112  0.034371     24.000000
  0.114569  0.103112  0.034371     48.000000
  0.126026  0.103112  0.034371     48.000000
  0.137483  0.103112  0.034371     24.000000
  0.114569  0.114569  0.034371     24.000000
  0.126026  0.114569  0.034371     48.000000
  0.137483  0.114569  0.034371     24.000000
  0.126026  0.126026  0.034371     24.000000
  0.137483  0.126026  0.034371     24.000000
  0.137483  0.137483  0.034371      6.000000
  0.045828  0.045828  0.045828      8.000000
  0.057284  0.045828  0.045828     24.000000
  0.068741  0.045828  0.045828     24.000000
  0.080198  0.045828  0.045828     24.000000
  0.091655  0.045828  0.045828     24.000000
  0.103112  0.045828  0.045828     24.000000
  0.114569  0.045828  0.045828     24.000000
  0.126026  0.045828  0.045828     24.000000
  0.137483  0.045828  0.045828     12.000000
  0.057284  0.057284  0.045828     24.000000
  0.068741  0.057284  0.045828     48.000000
  0.080198  0.057284  0.045828     48.000000
  0.091655  0.057284  0.045828     48.000000
  0.103112  0.057284  0.045828     48.000000
  0.114569  0.057284  0.045828     48.000000
  0.126026  0.057284  0.045828     48.000000
  0.137483  0.057284  0.045828     24.000000
  0.068741  0.068741  0.045828     24.000000
  0.080198  0.068741  0.045828     48.000000
  0.091655  0.068741  0.045828     48.000000
  0.103112  0.068741  0.045828     48.000000
  0.114569  0.068741  0.045828     48.000000
  0.126026  0.068741  0.045828     48.000000
  0.137483  0.068741  0.045828     24.000000
  0.080198  0.080198  0.045828     24.000000
  0.091655  0.080198  0.045828     48.000000
  0.103112  0.080198  0.045828     48.000000
  0.114569  0.080198  0.045828     48.000000
  0.126026  0.080198  0.045828     48.000000
  0.137483  0.080198  0.045828     24.000000
  0.091655  0.091655  0.045828     24.000000
  0.103112  0.091655  0.045828     48.000000
  0.114569  0.091655  0.045828     48.000000
  0.126026  0.091655  0.045828     48.000000
  0.137483  0.091655  0.045828     24.000000
  0.103112  0.103112  0.045828     24.000000
  0.114569  0.103112  0.045828     48.000000
  0.126026  0.103112  0.045828     48.000000
  0.137483  0.103112  0.045828     24.000000
  0.114569  0.114569  0.045828     24.000000
  0.126026  0.114569  0.045828     48.000000
  0.137483  0.114569  0.045828     24.000000
  0.126026  0.126026  0.045828     24.000000
  0.137483  0.126026  0.045828     24.000000
  0.137483  0.137483  0.045828      6.000000
  0.057284  0.057284  0.057284      8.000000
  0.068741  0.057284  0.057284     24.000000
  0.080198  0.057284  0.057284     24.000000
  0.091655  0.057284  0.057284     24.000000
  0.103112  0.057284  0.057284     24.000000
  0.114569  0.057284  0.057284     24.000000
  0.126026  0.057284  0.057284     24.000000
  0.137483  0.057284  0.057284     12.000000
  0.068741  0.068741  0.057284     24.000000
  0.080198  0.068741  0.057284     48.000000
  0.091655  0.068741  0.057284     48.000000
  0.103112  0.068741  0.057284     48.000000
  0.114569  0.068741  0.057284     48.000000
  0.126026  0.068741  0.057284     48.000000
  0.137483  0.068741  0.057284     24.000000
  0.080198  0.080198  0.057284     24.000000
  0.091655  0.080198  0.057284     48.000000
  0.103112  0.080198  0.057284     48.000000
  0.114569  0.080198  0.057284     48.000000
  0.126026  0.080198  0.057284     48.000000
  0.137483  0.080198  0.057284     24.000000
  0.091655  0.091655  0.057284     24.000000
  0.103112  0.091655  0.057284     48.000000
  0.114569  0.091655  0.057284     48.000000
  0.126026  0.091655  0.057284     48.000000
  0.137483  0.091655  0.057284     24.000000
  0.103112  0.103112  0.057284     24.000000
  0.114569  0.103112  0.057284     48.000000
  0.126026  0.103112  0.057284     48.000000
  0.137483  0.103112  0.057284     24.000000
  0.114569  0.114569  0.057284     24.000000
  0.126026  0.114569  0.057284     48.000000
  0.137483  0.114569  0.057284     24.000000
  0.126026  0.126026  0.057284     24.000000
  0.137483  0.126026  0.057284     24.000000
  0.137483  0.137483  0.057284      6.000000
  0.068741  0.068741  0.068741      8.000000
  0.080198  0.068741  0.068741     24.000000
  0.091655  0.068741  0.068741     24.000000
  0.103112  0.068741  0.068741     24.000000
  0.114569  0.068741  0.068741     24.000000
  0.126026  0.068741  0.068741     24.000000
  0.137483  0.068741  0.068741     12.000000
  0.080198  0.080198  0.068741     24.000000
  0.091655  0.080198  0.068741     48.000000
  0.103112  0.080198  0.068741     48.000000
  0.114569  0.080198  0.068741     48.000000
  0.126026  0.080198  0.068741     48.000000
  0.137483  0.080198  0.068741     24.000000
  0.091655  0.091655  0.068741     24.000000
  0.103112  0.091655  0.068741     48.000000
  0.114569  0.091655  0.068741     48.000000
  0.126026  0.091655  0.068741     48.000000
  0.137483  0.091655  0.068741     24.000000
  0.103112  0.103112  0.068741     24.000000
  0.114569  0.103112  0.068741     48.000000
  0.126026  0.103112  0.068741     48.000000
  0.137483  0.103112  0.068741     24.000000
  0.114569  0.114569  0.068741     24.000000
  0.126026  0.114569  0.068741     48.000000
  0.137483  0.114569  0.068741     24.000000
  0.126026  0.126026  0.068741     24.000000
  0.137483  0.126026  0.068741     24.000000
  0.137483  0.137483  0.068741      6.000000
  0.080198  0.080198  0.080198      8.000000
  0.091655  0.080198  0.080198     24.000000
  0.103112  0.080198  0.080198     24.000000
  0.114569  0.080198  0.080198     24.000000
  0.126026  0.080198  0.080198     24.000000
  0.137483  0.080198  0.080198     12.000000
  0.091655  0.091655  0.080198     24.000000
  0.103112  0.091655  0.080198     48.000000
  0.114569  0.091655  0.080198     48.000000
  0.126026  0.091655  0.080198     48.000000
  0.137483  0.091655  0.080198     24.000000
  0.103112  0.103112  0.080198     24.000000
  0.114569  0.103112  0.080198     48.000000
  0.126026  0.103112  0.080198     48.000000
  0.137483  0.103112  0.080198     24.000000
  0.114569  0.114569  0.080198     24.000000
  0.126026  0.114569  0.080198     48.000000
  0.137483  0.114569  0.080198     24.000000
  0.126026  0.126026  0.080198     24.000000
  0.137483  0.126026  0.080198     24.000000
  0.137483  0.137483  0.080198      6.000000
  0.091655  0.091655  0.091655      8.000000
  0.103112  0.091655  0.091655     24.000000
  0.114569  0.091655  0.091655     24.000000
  0.126026  0.091655  0.091655     24.000000
  0.137483  0.091655  0.091655     12.000000
  0.103112  0.103112  0.091655     24.000000
  0.114569  0.103112  0.091655     48.000000
  0.126026  0.103112  0.091655     48.000000
  0.137483  0.103112  0.091655     24.000000
  0.114569  0.114569  0.091655     24.000000
  0.126026  0.114569  0.091655     48.000000
  0.137483  0.114569  0.091655     24.000000
  0.126026  0.126026  0.091655     24.000000
  0.137483  0.126026  0.091655     24.000000
  0.137483  0.137483  0.091655      6.000000
  0.103112  0.103112  0.103112      8.000000
  0.114569  0.103112  0.103112     24.000000
  0.126026  0.103112  0.103112     24.000000
  0.137483  0.103112  0.103112     12.000000
  0.114569  0.114569  0.103112     24.000000
  0.126026  0.114569  0.103112     48.000000
  0.137483  0.114569  0.103112     24.000000
  0.126026  0.126026  0.103112     24.000000
  0.137483  0.126026  0.103112     24.000000
  0.137483  0.137483  0.103112      6.000000
  0.114569  0.114569  0.114569      8.000000
  0.126026  0.114569  0.114569     24.000000
  0.137483  0.114569  0.114569     12.000000
  0.126026  0.126026  0.114569     24.000000
  0.137483  0.126026  0.114569     24.000000
  0.137483  0.137483  0.114569      6.000000
  0.126026  0.126026  0.126026      8.000000
  0.137483  0.126026  0.126026     12.000000
  0.137483  0.137483  0.126026      6.000000
  0.137483  0.137483  0.137483      1.000000
 


--------------------------------------------------------------------------------------------------------




 Dimension of arrays:
   k-Points           NKPTS =    455   number of bands    NBANDS=     32
   number of dos      NEDOS =    301   number of ions     NIONS =      4
   non local maximal  LDIM  =      6   non local SUM 2l+1 LMDIM =     18
   total plane-waves  NPLWV =  46656
   max r-space proj   IRMAX =      1   max aug-charges    IRDMAX= 289514
   dimension x,y,z NGX =    36 NGY =   36 NGZ =   36
   dimension x,y,z NGXF=    72 NGYF=   72 NGZF=   72
   support grid    NGXF=   144 NGYF=  144 NGZF=  144
   ions per type =               4
 NGX,Y,Z   is equivalent  to a cutoff of  16.79, 16.79, 16.79 a.u.
 NGXF,Y,Z  is equivalent  to a cutoff of  33.58, 33.58, 33.58 a.u.


 I would recommend the setting:
   dimension x,y,z NGX =    33 NGY =   33 NGZ =   33
 SYSTEM =  unknown system                          
 POSCAR =  Cu                                      

 Startparameter for this run:
   NWRITE =      2    write-flag & timer
   PREC   = accura    medium, high low
   ISTART =      0    job   : 0-new  1-cont  2-samecut
   ICHARG =      2    charge: 1-file 2-atom 10-const
   ISPIN  =      1    spin polarized calculation?
   LNONCOLLINEAR =      F non collinear calculations
   LSORBIT =      F    spin-orbit coupling
   INIWAV =      1    electr: 0-lowe 1-rand  2-diag
   LASPH  =      F    aspherical Exc in radial PAW
   METAGGA=      F    non-selfconsistent MetaGGA calc.

 Electronic Relaxation 1
   ENCUT  =  800.0 eV  58.80 Ry    7.67 a.u.   8.22  8.22  8.22*2*pi/ulx,y,z
   ENINI  =  800.0     initial cutoff
   ENAUG  =  516.5 eV  augmentation charge cutoff
   NELM   =     60;   NELMIN=  2; NELMDL= -5     # of ELM steps 
   EDIFF  = 0.1E-07   stopping-criterion for ELM
   LREAL  =      F    real-space projection
   LCOMPAT=      F    compatible to vasp.4.4
   LREAL_COMPAT= F    compatible to vasp.4.5.1-3
   GGA_COMPAT  = T    GGA compatible to vasp.4.4-vasp.4.6
   LMAXPAW     = -100 max onsite density
   LMAXMIX     =    2 max onsite mixed and CHGCAR
   VOSKOWN=      0    Vosko Wilk Nusair interpolation
   ROPT   =    0.00000
 Ionic relaxation
   EDIFFG = 0.1E-06   stopping-criterion for IOM
   NSW    =      0    number of steps for IOM
   NBLOCK =      1;   KBLOCK =      1    inner block; outer block 
   IBRION =     -1    ionic relax: 0-MD 1-quasi-New 2-CG
   NFREE  =      0    steps in history (QN), initial steepest desc. (CG)
   ISIF   =      2    stress and relaxation
   IWAVPR =     10    prediction:  0-non 1-charg 2-wave 3-comb
   ISYM   =      2    0-nonsym 1-usesym 2-fastsym
   LCORR  =      T    Harris-Foulkes like correction to forces

   POTIM  =   0.50    time-step for ionic-motion
   TEIN   =    0.0    initial temperature
   TEBEG  =    0.0;   TEEND  =   0.0 temperature during run
   SMASS  =  -3.00    Nose mass-parameter (am)
   estimated Nose-frequenzy (Omega)   =  0.10E-29 period in steps =****** mass=  -0.290E-27a.u.
   NPACO  =    256;   APACO  = 16.0  distance and # of slots for P.C.
   PSTRESS=    0.0 pullay stress

  Mass of Ions in am
   POMASS =  63.55
  Ionic Valenz
   ZVAL   =  11.00
  Atomic Wigner-Seitz radii
   RWIGS  =  -1.00
   NELECT =      44.0000    total number of electrons
   NUPDOWN=      -1.0000    fix difference up-down

 DOS related values:
   EMIN   =  10.00;   EMAX   =-10.00  energy-range for DOS
   ISMEAR =     0;   SIGMA  =   0.01  broadening in eV -4-tet -1-fermi 0-gaus

 Electronic relaxation 2 (details)
   IALGO  =     38    algorithm
   LDIAG  =      T    sub-space diagonalisation
   IMIX   =      4    mixing-type and parameters
     AMIX     =   0.40;   BMIX     =  1.00
     AMIX_MAG =   1.60;   BMIX_MAG =  1.00
     AMIN     =   0.10
     WC   =   100.;   INIMIX=   1;  MIXPRE=   1

 Intra band minimization:
   WEIMIN = 0.0000     energy-eigenvalue tresh-hold
   EBREAK =  0.96E-10  absolut break condition
   DEPER  =   0.30     relativ break condition  

   TIME   =   0.10     timestep for ELM

  volume/ion in A,a.u.               =      11.32        76.38
  Fermi-wavevector in a.u.,eV,Ry     =   1.621601 35.777741  2.629590

 Second variation
   LSECVAR=     F    do a second variation
 
 Write flags
   LWAVE  =      F    write WAVECAR
   LCHARG =      F    write CHGCAR
   LVTOT  =      F    write LOCPOT, local potential
   LELF   =      F    write electronic localiz. function (ELF)
   LORBIT =      0    0 simple, 1 ext, 2 COOP (PROOUT)


 Dipole corrections
   IDIPOL =      0    1-x, 2-y, 3-z
   LDIPOL =      F    correct potential



--------------------------------------------------------------------------------------------------------


 Static calculation
 charge density will be updated during run
 non-spin polarized calculation
 Variant of blocked Davidson
 Davidson routine will perform the subspace rotation
 performe sub-space diagonalisation
    after iterative eigenvector-optimisation
 modified Broyden-mixing scheme, WC =      100.0
 initial mixing is a Kerker type mixing with AMIX =  0.4000 and BMIX =      1.0000
 Hartree-type preconditioning will be used
 using additional bands           10
 reciprocal scheme for non local part
 use partial core corrections
 calculate Harris-corrections to forces 
   (improved forces if not selfconsistent)
 use gradient corrections 
 use of overlap-Matrix (Vanderbilt PP)
 Gauss-broadening in eV      SIGMA  =   0.01


--------------------------------------------------------------------------------------------------------


  energy-cutoff  :      800.00
  volume of cell :       45.27
      direct lattice vectors                 reciprocal lattice vectors
     3.564087741  0.000000000  0.000000000     0.280576707  0.000000000  0.000000000
     0.000000000  3.564087741  0.000000000     0.000000000  0.280576707  0.000000000
     0.000000000  0.000000000  3.564087741     0.000000000  0.000000000  0.280576707

  length of vectors
     3.564087741  3.564087741  3.564087741     0.280576707  0.280576707  0.280576707


 
 k-points in units of 2pi/SCALE and weight: Automatic mesh                          
   0.00000000  0.00000000  0.00000000       0.000
   0.01145688  0.00000000  0.00000000       0.000
   0.02291376  0.00000000  0.00000000       0.000
   0.03437065  0.00000000  0.00000000       0.000
   0.04582753  0.00000000  0.00000000       0.000
   0.05728441  0.00000000  0.00000000       0.000
   0.06874129  0.00000000  0.00000000       0.000
   0.08019818  0.00000000  0.00000000       0.000
   0.09165506  0.00000000  0.00000000       0.000
   0.10311194  0.00000000  0.00000000       0.000
   0.11456882  0.00000000  0.00000000       0.000
   0.12602570  0.00000000  0.00000000       0.000
   0.13748259  0.00000000  0.00000000       0.000
   0.01145688  0.01145688  0.00000000       0.001
   0.02291376  0.01145688  0.00000000       0.002
   0.03437065  0.01145688  0.00000000       0.002
   0.04582753  0.01145688  0.00000000       0.002
   0.05728441  0.01145688  0.00000000       0.002
   0.06874129  0.01145688  0.00000000       0.002
   0.08019818  0.01145688  0.00000000       0.002
   0.09165506  0.01145688  0.00000000       0.002
   0.10311194  0.01145688  0.00000000       0.002
   0.11456882  0.01145688  0.00000000       0.002
   0.12602570  0.01145688  0.00000000       0.002
   0.13748259  0.01145688  0.00000000       0.001
   0.02291376  0.02291376  0.00000000       0.001
   0.03437065  0.02291376  0.00000000       0.002
   0.04582753  0.02291376  0.00000000       0.002
   0.05728441  0.02291376  0.00000000       0.002
   0.06874129  0.02291376  0.00000000       0.002
   0.08019818  0.02291376  0.00000000       0.002
   0.09165506  0.02291376  0.00000000       0.002
   0.10311194  0.02291376  0.00000000       0.002
   0.11456882  0.02291376  0.00000000       0.002
   0.12602570  0.02291376  0.00000000       0.002
   0.13748259  0.02291376  0.00000000       0.001
   0.03437065  0.03437065  0.00000000       0.001
   0.04582753  0.03437065  0.00000000       0.002
   0.05728441  0.03437065  0.00000000       0.002
   0.06874129  0.03437065  0.00000000       0.002
   0.08019818  0.03437065  0.00000000       0.002
   0.09165506  0.03437065  0.00000000       0.002
   0.10311194  0.03437065  0.00000000       0.002
   0.11456882  0.03437065  0.00000000       0.002
   0.12602570  0.03437065  0.00000000       0.002
   0.13748259  0.03437065  0.00000000       0.001
   0.04582753  0.04582753  0.00000000       0.001
   0.05728441  0.04582753  0.00000000       0.002
   0.06874129  0.04582753  0.00000000       0.002
   0.08019818  0.04582753  0.00000000       0.002
   0.09165506  0.04582753  0.00000000       0.002
   0.10311194  0.04582753  0.00000000       0.002
   0.11456882  0.04582753  0.00000000       0.002
   0.12602570  0.04582753  0.00000000       0.002
   0.13748259  0.04582753  0.00000000       0.001
   0.05728441  0.05728441  0.00000000       0.001
   0.06874129  0.05728441  0.00000000       0.002
   0.08019818  0.05728441  0.00000000       0.002
   0.09165506  0.05728441  0.00000000       0.002
   0.10311194  0.05728441  0.00000000       0.002
   0.11456882  0.05728441  0.00000000       0.002
   0.12602570  0.05728441  0.00000000       0.002
   0.13748259  0.05728441  0.00000000       0.001
   0.06874129  0.06874129  0.00000000       0.001
   0.08019818  0.06874129  0.00000000       0.002
   0.09165506  0.06874129  0.00000000       0.002
   0.10311194  0.06874129  0.00000000       0.002
   0.11456882  0.06874129  0.00000000       0.002
   0.12602570  0.06874129  0.00000000       0.002
   0.13748259  0.06874129  0.00000000       0.001
   0.08019818  0.08019818  0.00000000       0.001
   0.09165506  0.08019818  0.00000000       0.002
   0.10311194  0.08019818  0.00000000       0.002
   0.11456882  0.08019818  0.00000000       0.002
   0.12602570  0.08019818  0.00000000       0.002
   0.13748259  0.08019818  0.00000000       0.001
   0.09165506  0.09165506  0.00000000       0.001
   0.10311194  0.09165506  0.00000000       0.002
   0.11456882  0.09165506  0.00000000       0.002
   0.12602570  0.09165506  0.00000000       0.002
   0.13748259  0.09165506  0.00000000       0.001
   0.10311194  0.10311194  0.00000000       0.001
   0.11456882  0.10311194  0.00000000       0.002
   0.12602570  0.10311194  0.00000000       0.002
   0.13748259  0.10311194  0.00000000       0.001
   0.11456882  0.11456882  0.00000000       0.001
   0.12602570  0.11456882  0.00000000       0.002
   0.13748259  0.11456882  0.00000000       0.001
   0.12602570  0.12602570  0.00000000       0.001
   0.13748259  0.12602570  0.00000000       0.001
   0.13748259  0.13748259  0.00000000       0.000
   0.01145688  0.01145688  0.01145688       0.001
   0.02291376  0.01145688  0.01145688       0.002
   0.03437065  0.01145688  0.01145688       0.002
   0.04582753  0.01145688  0.01145688       0.002
   0.05728441  0.01145688  0.01145688       0.002
   0.06874129  0.01145688  0.01145688       0.002
   0.08019818  0.01145688  0.01145688       0.002
   0.09165506  0.01145688  0.01145688       0.002
   0.10311194  0.01145688  0.01145688       0.002
   0.11456882  0.01145688  0.01145688       0.002
   0.12602570  0.01145688  0.01145688       0.002
   0.13748259  0.01145688  0.01145688       0.001
   0.02291376  0.02291376  0.01145688       0.002
   0.03437065  0.02291376  0.01145688       0.003
   0.04582753  0.02291376  0.01145688       0.003
   0.05728441  0.02291376  0.01145688       0.003
   0.06874129  0.02291376  0.01145688       0.003
   0.08019818  0.02291376  0.01145688       0.003
   0.09165506  0.02291376  0.01145688       0.003
   0.10311194  0.02291376  0.01145688       0.003
   0.11456882  0.02291376  0.01145688       0.003
   0.12602570  0.02291376  0.01145688       0.003
   0.13748259  0.02291376  0.01145688       0.002
   0.03437065  0.03437065  0.01145688       0.002
   0.04582753  0.03437065  0.01145688       0.003
   0.05728441  0.03437065  0.01145688       0.003
   0.06874129  0.03437065  0.01145688       0.003
   0.08019818  0.03437065  0.01145688       0.003
   0.09165506  0.03437065  0.01145688       0.003
   0.10311194  0.03437065  0.01145688       0.003
   0.11456882  0.03437065  0.01145688       0.003
   0.12602570  0.03437065  0.01145688       0.003
   0.13748259  0.03437065  0.01145688       0.002
   0.04582753  0.04582753  0.01145688       0.002
   0.05728441  0.04582753  0.01145688       0.003
   0.06874129  0.04582753  0.01145688       0.003
   0.08019818  0.04582753  0.01145688       0.003
   0.09165506  0.04582753  0.01145688       0.003
   0.10311194  0.04582753  0.01145688       0.003
   0.11456882  0.04582753  0.01145688       0.003
   0.12602570  0.04582753  0.01145688       0.003
   0.13748259  0.04582753  0.01145688       0.002
   0.05728441  0.05728441  0.01145688       0.002
   0.06874129  0.05728441  0.01145688       0.003
   0.08019818  0.05728441  0.01145688       0.003
   0.09165506  0.05728441  0.01145688       0.003
   0.10311194  0.05728441  0.01145688       0.003
   0.11456882  0.05728441  0.01145688       0.003
   0.12602570  0.05728441  0.01145688       0.003
   0.13748259  0.05728441  0.01145688       0.002
   0.06874129  0.06874129  0.01145688       0.002
   0.08019818  0.06874129  0.01145688       0.003
   0.09165506  0.06874129  0.01145688       0.003
   0.10311194  0.06874129  0.01145688       0.003
   0.11456882  0.06874129  0.01145688       0.003
   0.12602570  0.06874129  0.01145688       0.003
   0.13748259  0.06874129  0.01145688       0.002
   0.08019818  0.08019818  0.01145688       0.002
   0.09165506  0.08019818  0.01145688       0.003
   0.10311194  0.08019818  0.01145688       0.003
   0.11456882  0.08019818  0.01145688       0.003
   0.12602570  0.08019818  0.01145688       0.003
   0.13748259  0.08019818  0.01145688       0.002
   0.09165506  0.09165506  0.01145688       0.002
   0.10311194  0.09165506  0.01145688       0.003
   0.11456882  0.09165506  0.01145688       0.003
   0.12602570  0.09165506  0.01145688       0.003
   0.13748259  0.09165506  0.01145688       0.002
   0.10311194  0.10311194  0.01145688       0.002
   0.11456882  0.10311194  0.01145688       0.003
   0.12602570  0.10311194  0.01145688       0.003
   0.13748259  0.10311194  0.01145688       0.002
   0.11456882  0.11456882  0.01145688       0.002
   0.12602570  0.11456882  0.01145688       0.003
   0.13748259  0.11456882  0.01145688       0.002
   0.12602570  0.12602570  0.01145688       0.002
   0.13748259  0.12602570  0.01145688       0.002
   0.13748259  0.13748259  0.01145688       0.000
   0.02291376  0.02291376  0.02291376       0.001
   0.03437065  0.02291376  0.02291376       0.002
   0.04582753  0.02291376  0.02291376       0.002
   0.05728441  0.02291376  0.02291376       0.002
   0.06874129  0.02291376  0.02291376       0.002
   0.08019818  0.02291376  0.02291376       0.002
   0.09165506  0.02291376  0.02291376       0.002
   0.10311194  0.02291376  0.02291376       0.002
   0.11456882  0.02291376  0.02291376       0.002
   0.12602570  0.02291376  0.02291376       0.002
   0.13748259  0.02291376  0.02291376       0.001
   0.03437065  0.03437065  0.02291376       0.002
   0.04582753  0.03437065  0.02291376       0.003
   0.05728441  0.03437065  0.02291376       0.003
   0.06874129  0.03437065  0.02291376       0.003
   0.08019818  0.03437065  0.02291376       0.003
   0.09165506  0.03437065  0.02291376       0.003
   0.10311194  0.03437065  0.02291376       0.003
   0.11456882  0.03437065  0.02291376       0.003
   0.12602570  0.03437065  0.02291376       0.003
   0.13748259  0.03437065  0.02291376       0.002
   0.04582753  0.04582753  0.02291376       0.002
   0.05728441  0.04582753  0.02291376       0.003
   0.06874129  0.04582753  0.02291376       0.003
   0.08019818  0.04582753  0.02291376       0.003
   0.09165506  0.04582753  0.02291376       0.003
   0.10311194  0.04582753  0.02291376       0.003
   0.11456882  0.04582753  0.02291376       0.003
   0.12602570  0.04582753  0.02291376       0.003
   0.13748259  0.04582753  0.02291376       0.002
   0.05728441  0.05728441  0.02291376       0.002
   0.06874129  0.05728441  0.02291376       0.003
   0.08019818  0.05728441  0.02291376       0.003
   0.09165506  0.05728441  0.02291376       0.003
   0.10311194  0.05728441  0.02291376       0.003
   0.11456882  0.05728441  0.02291376       0.003
   0.12602570  0.05728441  0.02291376       0.003
   0.13748259  0.05728441  0.02291376       0.002
   0.06874129  0.06874129  0.02291376       0.002
   0.08019818  0.06874129  0.02291376       0.003
   0.09165506  0.06874129  0.02291376       0.003
   0.10311194  0.06874129  0.02291376       0.003
   0.11456882  0.06874129  0.02291376       0.003
   0.12602570  0.06874129  0.02291376       0.003
   0.13748259  0.06874129  0.02291376       0.002
   0.08019818  0.08019818  0.02291376       0.002
   0.09165506  0.08019818  0.02291376       0.003
   0.10311194  0.08019818  0.02291376       0.003
   0.11456882  0.08019818  0.02291376       0.003
   0.12602570  0.08019818  0.02291376       0.003
   0.13748259  0.08019818  0.02291376       0.002
   0.09165506  0.09165506  0.02291376       0.002
   0.10311194  0.09165506  0.02291376       0.003
   0.11456882  0.09165506  0.02291376       0.003
   0.12602570  0.09165506  0.02291376       0.003
   0.13748259  0.09165506  0.02291376       0.002
   0.10311194  0.10311194  0.02291376       0.002
   0.11456882  0.10311194  0.02291376       0.003
   0.12602570  0.10311194  0.02291376       0.003
   0.13748259  0.10311194  0.02291376       0.002
   0.11456882  0.11456882  0.02291376       0.002
   0.12602570  0.11456882  0.02291376       0.003
   0.13748259  0.11456882  0.02291376       0.002
   0.12602570  0.12602570  0.02291376       0.002
   0.13748259  0.12602570  0.02291376       0.002
   0.13748259  0.13748259  0.02291376       0.000
   0.03437065  0.03437065  0.03437065       0.001
   0.04582753  0.03437065  0.03437065       0.002
   0.05728441  0.03437065  0.03437065       0.002
   0.06874129  0.03437065  0.03437065       0.002
   0.08019818  0.03437065  0.03437065       0.002
   0.09165506  0.03437065  0.03437065       0.002
   0.10311194  0.03437065  0.03437065       0.002
   0.11456882  0.03437065  0.03437065       0.002
   0.12602570  0.03437065  0.03437065       0.002
   0.13748259  0.03437065  0.03437065       0.001
   0.04582753  0.04582753  0.03437065       0.002
   0.05728441  0.04582753  0.03437065       0.003
   0.06874129  0.04582753  0.03437065       0.003
   0.08019818  0.04582753  0.03437065       0.003
   0.09165506  0.04582753  0.03437065       0.003
   0.10311194  0.04582753  0.03437065       0.003
   0.11456882  0.04582753  0.03437065       0.003
   0.12602570  0.04582753  0.03437065       0.003
   0.13748259  0.04582753  0.03437065       0.002
   0.05728441  0.05728441  0.03437065       0.002
   0.06874129  0.05728441  0.03437065       0.003
   0.08019818  0.05728441  0.03437065       0.003
   0.09165506  0.05728441  0.03437065       0.003
   0.10311194  0.05728441  0.03437065       0.003
   0.11456882  0.05728441  0.03437065       0.003
   0.12602570  0.05728441  0.03437065       0.003
   0.13748259  0.05728441  0.03437065       0.002
   0.06874129  0.06874129  0.03437065       0.002
   0.08019818  0.06874129  0.03437065       0.003
   0.09165506  0.06874129  0.03437065       0.003
   0.10311194  0.06874129  0.03437065       0.003
   0.11456882  0.06874129  0.03437065       0.003
   0.12602570  0.06874129  0.03437065       0.003
   0.13748259  0.06874129  0.03437065       0.002
   0.08019818  0.08019818  0.03437065       0.002
   0.09165506  0.08019818  0.03437065       0.003
   0.10311194  0.08019818  0.03437065       0.003
   0.11456882  0.08019818  0.03437065       0.003
   0.12602570  0.08019818  0.03437065       0.003
   0.13748259  0.08019818  0.03437065       0.002
   0.09165506  0.09165506  0.03437065       0.002
   0.10311194  0.09165506  0.03437065       0.003
   0.11456882  0.09165506  0.03437065       0.003
   0.12602570  0.09165506  0.03437065       0.003
   0.13748259  0.09165506  0.03437065       0.002
   0.10311194  0.10311194  0.03437065       0.002
   0.11456882  0.10311194  0.03437065       0.003
   0.12602570  0.10311194  0.03437065       0.003
   0.13748259  0.10311194  0.03437065       0.002
   0.11456882  0.11456882  0.03437065       0.002
   0.12602570  0.11456882  0.03437065       0.003
   0.13748259  0.11456882  0.03437065       0.002
   0.12602570  0.12602570  0.03437065       0.002
   0.13748259  0.12602570  0.03437065       0.002
   0.13748259  0.13748259  0.03437065       0.000
   0.04582753  0.04582753  0.04582753       0.001
   0.05728441  0.04582753  0.04582753       0.002
   0.06874129  0.04582753  0.04582753       0.002
   0.08019818  0.04582753  0.04582753       0.002
   0.09165506  0.04582753  0.04582753       0.002
   0.10311194  0.04582753  0.04582753       0.002
   0.11456882  0.04582753  0.04582753       0.002
   0.12602570  0.04582753  0.04582753       0.002
   0.13748259  0.04582753  0.04582753       0.001
   0.05728441  0.05728441  0.04582753       0.002
   0.06874129  0.05728441  0.04582753       0.003
   0.08019818  0.05728441  0.04582753       0.003
   0.09165506  0.05728441  0.04582753       0.003
   0.10311194  0.05728441  0.04582753       0.003
   0.11456882  0.05728441  0.04582753       0.003
   0.12602570  0.05728441  0.04582753       0.003
   0.13748259  0.05728441  0.04582753       0.002
   0.06874129  0.06874129  0.04582753       0.002
   0.08019818  0.06874129  0.04582753       0.003
   0.09165506  0.06874129  0.04582753       0.003
   0.10311194  0.06874129  0.04582753       0.003
   0.11456882  0.06874129  0.04582753       0.003
   0.12602570  0.06874129  0.04582753       0.003
   0.13748259  0.06874129  0.04582753       0.002
   0.08019818  0.08019818  0.04582753       0.002
   0.09165506  0.08019818  0.04582753       0.003
   0.10311194  0.08019818  0.04582753       0.003
   0.11456882  0.08019818  0.04582753       0.003
   0.12602570  0.08019818  0.04582753       0.003
   0.13748259  0.08019818  0.04582753       0.002
   0.09165506  0.09165506  0.04582753       0.002
   0.10311194  0.09165506  0.04582753       0.003
   0.11456882  0.09165506  0.04582753       0.003
   0.12602570  0.09165506  0.04582753       0.003
   0.13748259  0.09165506  0.04582753       0.002
   0.10311194  0.10311194  0.04582753       0.002
   0.11456882  0.10311194  0.04582753       0.003
   0.12602570  0.10311194  0.04582753       0.003
   0.13748259  0.10311194  0.04582753       0.002
   0.11456882  0.11456882  0.04582753       0.002
   0.12602570  0.11456882  0.04582753       0.003
   0.13748259  0.11456882  0.04582753       0.002
   0.12602570  0.12602570  0.04582753       0.002
   0.13748259  0.12602570  0.04582753       0.002
   0.13748259  0.13748259  0.04582753       0.000
   0.05728441  0.05728441  0.05728441       0.001
   0.06874129  0.05728441  0.05728441       0.002
   0.08019818  0.05728441  0.05728441       0.002
   0.09165506  0.05728441  0.05728441       0.002
   0.10311194  0.05728441  0.05728441       0.002
   0.11456882  0.05728441  0.05728441       0.002
   0.12602570  0.05728441  0.05728441       0.002
   0.13748259  0.05728441  0.05728441       0.001
   0.06874129  0.06874129  0.05728441       0.002
   0.08019818  0.06874129  0.05728441       0.003
   0.09165506  0.06874129  0.05728441       0.003
   0.10311194  0.06874129  0.05728441       0.003
   0.11456882  0.06874129  0.05728441       0.003
   0.12602570  0.06874129  0.05728441       0.003
   0.13748259  0.06874129  0.05728441       0.002
   0.08019818  0.08019818  0.05728441       0.002
   0.09165506  0.08019818  0.05728441       0.003
   0.10311194  0.08019818  0.05728441       0.003
   0.11456882  0.08019818  0.05728441       0.003
   0.12602570  0.08019818  0.05728441       0.003
   0.13748259  0.08019818  0.05728441       0.002
   0.09165506  0.09165506  0.05728441       0.002
   0.10311194  0.09165506  0.05728441       0.003
   0.11456882  0.09165506  0.05728441       0.003
   0.12602570  0.09165506  0.05728441       0.003
   0.13748259  0.09165506  0.05728441       0.002
   0.10311194  0.10311194  0.05728441       0.002
   0.11456882  0.10311194  0.05728441       0.003
   0.12602570  0.10311194  0.05728441       0.003
   0.13748259  0.10311194  0.05728441       0.002
   0.11456882  0.11456882  0.05728441       0.002
   0.12602570  0.11456882  0.05728441       0.003
   0.13748259  0.11456882  0.05728441       0.002
   0.12602570  0.12602570  0.05728441       0.002
   0.13748259  0.12602570  0.05728441       0.002
   0.13748259  0.13748259  0.05728441       0.000
   0.06874129  0.06874129  0.06874129       0.001
   0.08019818  0.06874129  0.06874129       0.002
   0.09165506  0.06874129  0.06874129       0.002
   0.10311194  0.06874129  0.06874129       0.002
   0.11456882  0.06874129  0.06874129       0.002
   0.12602570  0.06874129  0.06874129       0.002
   0.13748259  0.06874129  0.06874129       0.001
   0.08019818  0.08019818  0.06874129       0.002
   0.09165506  0.08019818  0.06874129       0.003
   0.10311194  0.08019818  0.06874129       0.003
   0.11456882  0.08019818  0.06874129       0.003
   0.12602570  0.08019818  0.06874129       0.003
   0.13748259  0.08019818  0.06874129       0.002
   0.09165506  0.09165506  0.06874129       0.002
   0.10311194  0.09165506  0.06874129       0.003
   0.11456882  0.09165506  0.06874129       0.003
   0.12602570  0.09165506  0.06874129       0.003
   0.13748259  0.09165506  0.06874129       0.002
   0.10311194  0.10311194  0.06874129       0.002
   0.11456882  0.10311194  0.06874129       0.003
   0.12602570  0.10311194  0.06874129       0.003
   0.13748259  0.10311194  0.06874129       0.002
   0.11456882  0.11456882  0.06874129       0.002
   0.12602570  0.11456882  0.06874129       0.003
   0.13748259  0.11456882  0.06874129       0.002
   0.12602570  0.12602570  0.06874129       0.002
   0.13748259  0.12602570  0.06874129       0.002
   0.13748259  0.13748259  0.06874129       0.000
   0.08019818  0.08019818  0.08019818       0.001
   0.09165506  0.08019818  0.08019818       0.002
   0.10311194  0.08019818  0.08019818       0.002
   0.11456882  0.08019818  0.08019818       0.002
   0.12602570  0.08019818  0.08019818       0.002
   0.13748259  0.08019818  0.08019818       0.001
   0.09165506  0.09165506  0.08019818       0.002
   0.10311194  0.09165506  0.08019818       0.003
   0.11456882  0.09165506  0.08019818       0.003
   0.12602570  0.09165506  0.08019818       0.003
   0.13748259  0.09165506  0.08019818       0.002
   0.10311194  0.10311194  0.08019818       0.002
   0.11456882  0.10311194  0.08019818       0.003
   0.12602570  0.10311194  0.08019818       0.003
   0.13748259  0.10311194  0.08019818       0.002
   0.11456882  0.11456882  0.08019818       0.002
   0.12602570  0.11456882  0.08019818       0.003
   0.13748259  0.11456882  0.08019818       0.002
   0.12602570  0.12602570  0.08019818       0.002
   0.13748259  0.12602570  0.08019818       0.002
   0.13748259  0.13748259  0.08019818       0.000
   0.09165506  0.09165506  0.09165506       0.001
   0.10311194  0.09165506  0.09165506       0.002
   0.11456882  0.09165506  0.09165506       0.002
   0.12602570  0.09165506  0.09165506       0.002
   0.13748259  0.09165506  0.09165506       0.001
   0.10311194  0.10311194  0.09165506       0.002
   0.11456882  0.10311194  0.09165506       0.003
   0.12602570  0.10311194  0.09165506       0.003
   0.13748259  0.10311194  0.09165506       0.002
   0.11456882  0.11456882  0.09165506       0.002
   0.12602570  0.11456882  0.09165506       0.003
   0.13748259  0.11456882  0.09165506       0.002
   0.12602570  0.12602570  0.09165506       0.002
   0.13748259  0.12602570  0.09165506       0.002
   0.13748259  0.13748259  0.09165506       0.000
   0.10311194  0.10311194  0.10311194       0.001
   0.11456882  0.10311194  0.10311194       0.002
   0.12602570  0.10311194  0.10311194       0.002
   0.13748259  0.10311194  0.10311194       0.001
   0.11456882  0.11456882  0.10311194       0.002
   0.12602570  0.11456882  0.10311194       0.003
   0.13748259  0.11456882  0.10311194       0.002
   0.12602570  0.12602570  0.10311194       0.002
   0.13748259  0.12602570  0.10311194       0.002
   0.13748259  0.13748259  0.10311194       0.000
   0.11456882  0.11456882  0.11456882       0.001
   0.12602570  0.11456882  0.11456882       0.002
   0.13748259  0.11456882  0.11456882       0.001
   0.12602570  0.12602570  0.11456882       0.002
   0.13748259  0.12602570  0.11456882       0.002
   0.13748259  0.13748259  0.11456882       0.000
   0.12602570  0.12602570  0.12602570       0.001
   0.13748259  0.12602570  0.12602570       0.001
   0.13748259  0.13748259  0.12602570       0.000
   0.13748259  0.13748259  0.13748259       0.000
 
 k-points in reciprocal lattice and weights: Automatic mesh                          
   0.00000000  0.00000000  0.00000000       0.000
   0.04166667  0.00000000  0.00000000       0.000
   0.08333333  0.00000000  0.00000000       0.000
   0.12500000  0.00000000  0.00000000       0.000
   0.16666667  0.00000000  0.00000000       0.000
   0.20833333  0.00000000  0.00000000       0.000
   0.25000000  0.00000000  0.00000000       0.000
   0.29166667  0.00000000  0.00000000       0.000
   0.33333333  0.00000000  0.00000000       0.000
   0.37500000  0.00000000  0.00000000       0.000
   0.41666667  0.00000000  0.00000000       0.000
   0.45833333  0.00000000  0.00000000       0.000
   0.50000000  0.00000000  0.00000000       0.000
   0.04166667  0.04166667  0.00000000       0.001
   0.08333333  0.04166667  0.00000000       0.002
   0.12500000  0.04166667  0.00000000       0.002
   0.16666667  0.04166667  0.00000000       0.002
   0.20833333  0.04166667  0.00000000       0.002
   0.25000000  0.04166667  0.00000000       0.002
   0.29166667  0.04166667  0.00000000       0.002
   0.33333333  0.04166667  0.00000000       0.002
   0.37500000  0.04166667  0.00000000       0.002
   0.41666667  0.04166667  0.00000000       0.002
   0.45833333  0.04166667  0.00000000       0.002
   0.50000000  0.04166667  0.00000000       0.001
   0.08333333  0.08333333  0.00000000       0.001
   0.12500000  0.08333333  0.00000000       0.002
   0.16666667  0.08333333  0.00000000       0.002
   0.20833333  0.08333333  0.00000000       0.002
   0.25000000  0.08333333  0.00000000       0.002
   0.29166667  0.08333333  0.00000000       0.002
   0.33333333  0.08333333  0.00000000       0.002
   0.37500000  0.08333333  0.00000000       0.002
   0.41666667  0.08333333  0.00000000       0.002
   0.45833333  0.08333333  0.00000000       0.002
   0.50000000  0.08333333  0.00000000       0.001
   0.12500000  0.12500000  0.00000000       0.001
   0.16666667  0.12500000  0.00000000       0.002
   0.20833333  0.12500000  0.00000000       0.002
   0.25000000  0.12500000  0.00000000       0.002
   0.29166667  0.12500000  0.00000000       0.002
   0.33333333  0.12500000  0.00000000       0.002
   0.37500000  0.12500000  0.00000000       0.002
   0.41666667  0.12500000  0.00000000       0.002
   0.45833333  0.12500000  0.00000000       0.002
   0.50000000  0.12500000  0.00000000       0.001
   0.16666667  0.16666667  0.00000000       0.001
   0.20833333  0.16666667  0.00000000       0.002
   0.25000000  0.16666667  0.00000000       0.002
   0.29166667  0.16666667  0.00000000       0.002
   0.33333333  0.16666667  0.00000000       0.002
   0.37500000  0.16666667  0.00000000       0.002
   0.41666667  0.16666667  0.00000000       0.002
   0.45833333  0.16666667  0.00000000       0.002
   0.50000000  0.16666667  0.00000000       0.001
   0.20833333  0.20833333  0.00000000       0.001
   0.25000000  0.20833333  0.00000000       0.002
   0.29166667  0.20833333  0.00000000       0.002
   0.33333333  0.20833333  0.00000000       0.002
   0.37500000  0.20833333  0.00000000       0.002
   0.41666667  0.20833333  0.00000000       0.002
   0.45833333  0.20833333  0.00000000       0.002
   0.50000000  0.20833333  0.00000000       0.001
   0.25000000  0.25000000  0.00000000       0.001
   0.29166667  0.25000000  0.00000000       0.002
   0.33333333  0.25000000  0.00000000       0.002
[...]
     24       3.8250      2.00000
     25       8.4290      0.00000
     26       8.4290      0.00000
     27       8.4290      0.00000
     28       9.7784      0.00000
     29      23.9612      0.00000
     30      23.9612      0.00000
     31      23.9612      0.00000
     32      25.3341      0.00000

 k-point 447 :       0.4583    0.4167    0.4167
  band No.  band energies     occupation 
      1      -1.2711      2.00000
      2      -1.1275      2.00000
      3      -1.0620      2.00000
      4      -1.0620      2.00000
      5       0.8693      2.00000
      6       0.8693      2.00000
      7       0.8988      2.00000
      8       0.9624      2.00000
      9       0.9769      2.00000
     10       1.0051      2.00000
     11       1.0154      2.00000
     12       1.0154      2.00000
     13       1.8440      2.00000
     14       1.8440      2.00000
     15       1.8753      2.00000
     16       2.1214      2.00000
     17       2.4242      2.00000
     18       2.4618      2.00000
     19       2.4618      2.00000
     20       2.4676      2.00000
     21       2.5799      2.00000
     22       3.3888      2.00000
     23       3.8116      2.00000
     24       3.8116      2.00000
     25       8.2430      0.00000
     26       8.2430      0.00000
     27       8.6593      0.00000
     28       9.3426      0.00000
     29      24.2453      0.00000
     30      24.2453      0.00000
     31      24.9500      0.00000
     32      25.3264      0.00000

 k-point 448 :       0.5000    0.4167    0.4167
  band No.  band energies     occupation 
      1      -1.2018      2.00000
      2      -1.2018      2.00000
      3      -1.0669      2.00000
      4      -1.0669      2.00000
      5       0.8751      2.00000
      6       0.8751      2.00000
      7       0.9354      2.00000
      8       0.9354      2.00000
      9       0.9853      2.00000
     10       0.9853      2.00000
     11       1.0083      2.00000
     12       1.0083      2.00000
     13       1.8866      2.00000
     14       1.8866      2.00000
     15       2.0113      2.00000
     16       2.0113      2.00000
     17       2.4521      2.00000
     18       2.4521      2.00000
     19       2.4557      2.00000
     20       2.4557      2.00000
     21       2.9643      2.00000
     22       2.9643      2.00000
     23       3.8066      2.00000
     24       3.8066      2.00000
     25       8.1800      0.00000
     26       8.1800      0.00000
     27       8.9674      0.00000
     28       8.9674      0.00000
     29      24.3864      0.00000
     30      24.3864      0.00000
     31      25.1977      0.00000
     32      25.1977      0.00000

 k-point 449 :       0.4583    0.4583    0.4167
  band No.  band energies     occupation 
      1      -1.2296      2.00000
      2      -1.1256      2.00000
      3      -1.1256      2.00000
      4      -1.0931      2.00000
      5       0.8930      2.00000
      6       0.9076      2.00000
      7       0.9076      2.00000
      8       0.9572      2.00000
      9       0.9648      2.00000
     10       0.9874      2.00000
     11       0.9874      2.00000
     12       0.9925      2.00000
     13       1.9789      2.00000
     14       2.0069      2.00000
     15       2.0069      2.00000
     16       2.2499      2.00000
     17       2.4141      2.00000
     18       2.4580      2.00000
     19       2.4602      2.00000
     20       2.4602      2.00000
     21       2.7302      2.00000
     22       3.4355      2.00000
     23       3.4355      2.00000
     24       3.6679      2.00000
     25       8.1687      0.00000
     26       8.3861      0.00000
     27       8.3861      0.00000
     28       8.9477      0.00000
     29      24.6065      0.00000
     30      25.0686      0.00000
     31      25.0686      0.00000
     32      25.8723      0.00000

 k-point 450 :       0.5000    0.4583    0.4167
  band No.  band energies     occupation 
      1      -1.1813      2.00000
      2      -1.1813      2.00000
      3      -1.1142      2.00000
      4      -1.1142      2.00000
      5       0.9063      2.00000
      6       0.9063      2.00000
      7       0.9371      2.00000
      8       0.9371      2.00000
      9       0.9703      2.00000
     10       0.9703      2.00000
     11       0.9826      2.00000
     12       0.9826      2.00000
     13       2.0446      2.00000
     14       2.0446      2.00000
     15       2.1550      2.00000
     16       2.1550      2.00000
     17       2.4425      2.00000
     18       2.4425      2.00000
     19       2.4524      2.00000
     20       2.4524      2.00000
     21       3.0592      2.00000
     22       3.0592      2.00000
     23       3.5335      2.00000
     24       3.5335      2.00000
     25       8.2191      0.00000
     26       8.2191      0.00000
     27       8.6257      0.00000
     28       8.6257      0.00000
     29      24.9066      0.00000
     30      24.9066      0.00000
     31      25.5574      0.00000
     32      25.5574      0.00000

 k-point 451 :       0.5000    0.5000    0.4167
  band No.  band energies     occupation 
      1      -1.1523      2.00000
      2      -1.1523      2.00000
      3      -1.1523      2.00000
      4      -1.1523      2.00000
      5       0.9281      2.00000
      6       0.9281      2.00000
      7       0.9281      2.00000
      8       0.9281      2.00000
      9       0.9688      2.00000
     10       0.9688      2.00000
     11       0.9688      2.00000
     12       0.9688      2.00000
     13       2.1560      2.00000
     14       2.1560      2.00000
     15       2.1560      2.00000
     16       2.1560      2.00000
     17       2.4390      2.00000
     18       2.4390      2.00000
     19       2.4390      2.00000
     20       2.4390      2.00000
     21       3.2667      2.00000
     22       3.2667      2.00000
     23       3.2667      2.00000
     24       3.2667      2.00000
     25       8.3723      0.00000
     26       8.3723      0.00000
     27       8.3723      0.00000
     28       8.3723      0.00000
     29      25.2714      0.00000
     30      25.2714      0.00000
     31      25.2714      0.00000
     32      25.2714      0.00000

 k-point 452 :       0.4583    0.4583    0.4583
  band No.  band energies     occupation 
      1      -1.2088      2.00000
      2      -1.1409      2.00000
      3      -1.1409      2.00000
      4      -1.1409      2.00000
      5       0.9223      2.00000
      6       0.9223      2.00000
      7       0.9223      2.00000
      8       0.9544      2.00000
      9       0.9544      2.00000
     10       0.9684      2.00000
     11       0.9684      2.00000
     12       0.9684      2.00000
     13       2.1679      2.00000
     14       2.1679      2.00000
     15       2.1679      2.00000
     16       2.4442      2.00000
     17       2.4442      2.00000
     18       2.4663      2.00000
     19       2.4663      2.00000
     20       2.4663      2.00000
     21       2.7316      2.00000
     22       3.3537      2.00000
     23       3.3537      2.00000
     24       3.3537      2.00000
     25       8.2070      0.00000
     26       8.2070      0.00000
     27       8.2070      0.00000
     28       8.6089      0.00000
     29      25.4537      0.00000
     30      25.4537      0.00000
     31      25.4537      0.00000
     32      26.0467      0.00000

 k-point 453 :       0.5000    0.4583    0.4583
  band No.  band energies     occupation 
      1      -1.1795      2.00000
      2      -1.1795      2.00000
      3      -1.1461      2.00000
      4      -1.1461      2.00000
      5       0.9280      2.00000
      6       0.9280      2.00000
      7       0.9429      2.00000
      8       0.9429      2.00000
      9       0.9556      2.00000
     10       0.9556      2.00000
     11       0.9613      2.00000
     12       0.9613      2.00000
     13       2.2349      2.00000
     14       2.2349      2.00000
     15       2.3393      2.00000
     16       2.3393      2.00000
     17       2.4617      2.00000
     18       2.4617      2.00000
     19       2.4626      2.00000
     20       2.4626      2.00000
     21       3.0208      2.00000
     22       3.0208      2.00000
     23       3.3197      2.00000
     24       3.3197      2.00000
     25       8.1466      0.00000
     26       8.1466      0.00000
     27       8.3582      0.00000
     28       8.3582      0.00000
     29      25.5739      0.00000
     30      25.5739      0.00000
     31      25.9003      0.00000
     32      25.9003      0.00000

 k-point 454 :       0.5000    0.5000    0.4583
  band No.  band energies     occupation 
      1      -1.1678      2.00000
      2      -1.1678      2.00000
      3      -1.1678      2.00000
      4      -1.1678      2.00000
      5       0.9411      2.00000
      6       0.9411      2.00000
      7       0.9411      2.00000
      8       0.9411      2.00000
      9       0.9513      2.00000
     10       0.9513      2.00000
     11       0.9513      2.00000
     12       0.9513      2.00000
     13       2.3667      2.00000
     14       2.3667      2.00000
     15       2.3667      2.00000
     16       2.3667      2.00000
     17       2.4584      2.00000
     18       2.4584      2.00000
     19       2.4584      2.00000
     20       2.4584      2.00000
     21       3.1201      2.00000
     22       3.1201      2.00000
     23       3.1201      2.00000
     24       3.1201      2.00000
     25       8.1954      0.00000
     26       8.1954      0.00000
     27       8.1954      0.00000
     28       8.1954      0.00000
     29      25.8574      0.00000
     30      25.8574      0.00000
     31      25.8574      0.00000
     32      25.8574      0.00000

 k-point 455 :       0.5000    0.5000    0.5000
  band No.  band energies     occupation 
      1      -1.1731      2.00000
      2      -1.1731      2.00000
      3      -1.1731      2.00000
      4      -1.1731      2.00000
      5       0.9455      2.00000
      6       0.9455      2.00000
      7       0.9455      2.00000
      8       0.9455      2.00000
      9       0.9455      2.00000
     10       0.9455      2.00000
     11       0.9455      2.00000
     12       0.9455      2.00000
     13       2.4649      2.00000
     14       2.4649      2.00000
     15       2.4649      2.00000
     16       2.4649      2.00000
     17       2.4649      2.00000
     18       2.4649      2.00000
     19       2.4649      2.00000
     20       2.4649      2.00000
     21       3.0438      2.00000
     22       3.0438      2.00000
     23       3.0438      2.00000
     24       3.0438      2.00000
     25       8.1358      0.00000
     26       8.1358      0.00000
     27       8.1358      0.00000
     28       8.1358      0.00000
     29      25.9959      0.00000
     30      25.9959      0.00000
     31      25.9959      0.00000
     32      25.9959      0.00000


--------------------------------------------------------------------------------------------------------


 soft charge-density along one line, spin component           1
         0         1         2         3         4         5         6         7         8         9
 total charge-density along one line
 
 pseudopotential strength for first ion, spin component:           1
 -6.225   0.000  -0.000   0.000   0.000  -0.353  -0.000   0.000
  0.000  -6.225  -0.000   0.000  -0.000  -0.000  -0.353   0.000
 -0.000  -0.000  -6.206  -0.000   0.000   0.000   0.000  -0.362
  0.000   0.000  -0.000  -6.225   0.000  -0.000  -0.000   0.000
  0.000  -0.000   0.000   0.000  -6.206  -0.000   0.000  -0.000
 -0.353  -0.000   0.000  -0.000  -0.000   1.726   0.000  -0.000
 -0.000  -0.353   0.000  -0.000   0.000   0.000   1.726  -0.000
  0.000   0.000  -0.362   0.000  -0.000  -0.000  -0.000   1.730
 -0.000  -0.000   0.000  -0.353  -0.000   0.000   0.000  -0.000
 -0.000   0.000  -0.000  -0.000  -0.362   0.000  -0.000   0.000
 -0.000  -0.000  -0.000  -0.000   0.000  -0.000  -0.000  -0.000
  0.000   0.000   0.000   0.000  -0.000  -0.000  -0.000  -0.000
  0.000   0.000  -0.000   0.000  -0.000  -0.000  -0.000   0.000
  0.000   0.000   0.000   0.000   0.000   0.000  -0.000  -0.000
  0.000   0.000  -0.000   0.000   0.000  -0.000   0.000   0.000
 -0.000  -0.000   0.000  -0.000   0.000   0.000   0.000  -0.000
 -0.000  -0.000  -0.000  -0.000  -0.000   0.000   0.000   0.000
 -0.000  -0.000   0.000  -0.000  -0.000   0.000   0.000  -0.000
 total augmentation occupancy for first ion, spin component:           1
  1.869  -0.009  -0.016  -0.006  -0.011   0.033   0.008  -0.000   0.002   0.012   0.040  -0.003  -0.000   0.000  -0.000  -0.000
 -0.009   1.940  -0.001  -0.008  -0.005   0.008  -0.039   0.002   0.010  -0.002   0.049   0.008  -0.000  -0.000  -0.000  -0.000
 -0.016  -0.001   1.906   0.004  -0.014  -0.000   0.002  -0.006  -0.004   0.033  -0.004  -0.061  -0.000  -0.000   0.000  -0.000
 -0.006  -0.008   0.004   1.930   0.002   0.002   0.010  -0.004  -0.004   0.005   0.026   0.002  -0.000   0.000   0.000  -0.000
 -0.011  -0.005  -0.014   0.002   1.935   0.012  -0.002   0.033   0.005  -0.090   0.058   0.042   0.000   0.000   0.000   0.000
  0.033   0.008  -0.000   0.002   0.012   0.112  -0.004   0.022  -0.001  -0.010   0.019   0.019  -0.000   0.000  -0.000  -0.000
  0.008  -0.039   0.002   0.010  -0.002  -0.004   0.091  -0.005  -0.007   0.011  -0.017   0.013  -0.000   0.000   0.000  -0.000
 -0.000   0.002  -0.006  -0.004   0.033   0.022  -0.005   0.097  -0.000  -0.003   0.127  -0.017  -0.000  -0.000   0.000   0.000
  0.002   0.010  -0.004  -0.004   0.005  -0.001  -0.007  -0.000   0.071  -0.012   0.000   0.010   0.000   0.000  -0.000  -0.000
  0.012  -0.002   0.033   0.005  -0.090  -0.010   0.011  -0.003  -0.012   0.075  -0.091   0.019   0.000   0.000   0.000   0.000
  0.040   0.049  -0.004   0.026   0.058   0.019  -0.017   0.127   0.000  -0.091   1.250  -0.384   0.000   0.000   0.000   0.000
 -0.003   0.008  -0.061   0.002   0.042   0.019   0.013  -0.017   0.010   0.019  -0.384   0.171  -0.000   0.000   0.000  -0.000
 -0.000  -0.000  -0.000  -0.000   0.000  -0.000  -0.000  -0.000   0.000   0.000   0.000  -0.000   0.194   0.018  -0.016  -0.014
  0.000  -0.000  -0.000   0.000   0.000   0.000   0.000  -0.000   0.000   0.000   0.000   0.000   0.018   0.141  -0.003  -0.002
 -0.000  -0.000   0.000   0.000   0.000  -0.000   0.000   0.000  -0.000   0.000   0.000   0.000  -0.016  -0.003   0.294  -0.001
 -0.000  -0.000  -0.000  -0.000   0.000  -0.000  -0.000   0.000  -0.000   0.000   0.000  -0.000  -0.014  -0.002  -0.001   0.001
  0.000  -0.000  -0.000  -0.000  -0.000   0.000  -0.000  -0.000  -0.000  -0.000   0.000  -0.000  -0.002  -0.009  -0.001   0.000
 -0.000  -0.000   0.000   0.000   0.000  -0.000  -0.000  -0.000  -0.000   0.000  -0.000  -0.000  -0.001  -0.001  -0.021   0.000


------------------------ aborting loop because EDIFF is reached ----------------------------------------




--------------------------------------------------------------------------------------------------------


    CHARGE:  VPU time    1.91: CPU time    1.91
    FORLOC:  VPU time    0.00: CPU time    0.00
    FORNL :  VPU time    6.35: CPU time    6.37
    STRESS:  VPU time   21.02: CPU time   21.06
    FORCOR:  VPU time    0.10: CPU time    0.10
    FORHAR:  VPU time    0.02: CPU time    0.02
    MIXING:  VPU time    0.00: CPU time    0.01


--------------------------------------------------------------------------------------------------------



  FREE ENERGIE OF THE ION-ELECTRON SYSTEM (eV)
  ---------------------------------------------------
  free  energy   TOTEN  =       -14.792236 eV

  energy  without entropy=      -14.792160  energy(sigma->0) =      -14.792198
 

  FORCE on cell =-STRESS in cart. coord.  units (eV/reduce length):
  Direction    X        Y        Z        XY       YZ       ZX
  --------------------------------------------------------------------------------------
  Alpha Z    451.52    451.52    451.52
  Ewald    -1494.27  -1494.27  -1494.27     -0.00     -0.00     -0.00
  Hartree    394.07    394.07    394.07      0.00     -0.00     -0.00
  E(xc)     -251.07   -251.07   -251.07      0.00     -0.00      0.00
  Local      503.97    503.97    503.97     -0.00      0.00      0.00
  n-local   -139.41   -145.55   -146.82      0.42      1.83      0.65
  augment    226.30    226.30    226.30     -0.00     -0.00     -0.00
  Kinetic    324.08    315.16    309.15     -3.13     -0.19     -1.50
  -------------------------------------------------------------------------------------
  Total        2.73      2.73      2.73      0.00      0.00     -0.00
  in kB       96.78     96.78     96.78      0.00      0.00     -0.00
  external pressure =       96.78 kB  Pullay stress =        0.00 kB


 VOLUME and BASIS-vectors are now :
 -----------------------------------------------------------------------------
  energy-cutoff  :      800.00
  volume of cell :       45.27
      direct lattice vectors                 reciprocal lattice vectors
     3.564087741  0.000000000  0.000000000     0.280576707  0.000000000  0.000000000
     0.000000000  3.564087741  0.000000000     0.000000000  0.280576707  0.000000000
     0.000000000  0.000000000  3.564087741     0.000000000  0.000000000  0.280576707

  length of vectors
     3.564087741  3.564087741  3.564087741     0.280576707  0.280576707  0.280576707


 FORCES acting on ions
    electron-ion (+dipol)            ewald-force                    non-local-force                 convergence-correction
 -----------------------------------------------------------------------------------------------
   -.596E-13 -.610E-13 -.105E-12   -.159E-13 -.260E-13 0.640E-14   -.646E-26 0.388E-25 0.614E-25   0.207E-13 -.444E-13 -.967E-14
   0.470E-12 0.349E-11 0.215E-11   -.957E-14 -.125E-13 0.642E-14   0.258E-25 -.969E-26 0.606E-25   -.500E-13 -.153E-13 -.491E-13
   0.472E-12 -.639E-13 0.733E-11   0.201E-13 0.128E-13 -.705E-14   0.485E-25 0.258E-25 -.517E-25   -.686E-13 -.346E-13 0.137E-13
   -.597E-13 0.471E-12 0.427E-12   0.328E-14 0.263E-13 -.703E-14   0.775E-25 0.258E-25 0.582E-25   0.127E-13 -.373E-13 0.372E-13
 -----------------------------------------------------------------------------------------------
   0.823E-12 0.384E-11 0.981E-11   -.201E-14 0.565E-15 -.127E-14   0.145E-24 0.808E-25 0.128E-24   -.852E-13 -.132E-12 -.787E-14
 
 
 POSITION                                       TOTAL-FORCE (eV/Angst)
 -----------------------------------------------------------------------------------
      0.00000      0.00000      0.00000         0.000000      0.000000     -0.000000
      1.78204      1.78204      0.00000         0.000000     -0.000000     -0.000000
      1.78204      0.00000      1.78204        -0.000000      0.000000      0.000000
      0.00000      1.78204      1.78204        -0.000000      0.000000     -0.000000
 -----------------------------------------------------------------------------------
    total drift:                                0.000000      0.000000      0.000000


--------------------------------------------------------------------------------------------------------



 mean value of Nose-termostat <S>:     1.000 mean value of <T> :     0.000
 mean temperature <T/S>/<1/S>  :     0.000

     LOOP+:  VPU time  983.72: CPU time  987.78
  
  
 General timing and accounting informations for this job:
 ========================================================
  
                  Total CPU time used (sec):      999.578
                            User time (sec):      823.990
                          System time (sec):      175.588
                         Elapsed time (sec):     1003.787
  
                   Maximum memory used (kb):     1853272.
                   Average memory used (kb):           0.
  
                          Minor page faults:       472789
                          Major page faults:            0
                 Voluntary context switches:          999
