<?xml version="1.0" encoding="ISO-8859-1"?>
<modeling>
 <generator>
  <i name="program" type="string">vasp</i>
  <i name="version" type="string">4.6.28 </i>
  <i name="subversion" type="string">25Jul05 complex  parallel</i>
  <i name="platform" type="string">LinuxIFC</i>
  <i name="date" type="string">2017 01 11</i>
  <i name="time" type="string">18:51:55</i>
 </generator>
 <incar>
  <i type="string" name="PREC">accurate</i>
  <i type="int" name="IALGO">    38</i>
  <i type="logical" name="ADDGRID"> T  </i>
  <i name="EDIFF">      0.00000001</i>
  <i type="int" name="IBRION">    -1</i>
  <i name="ENCUT">    800.00000000</i>
  <i type="logical" name="LREAL"> F  </i>
  <i type="int" name="ISMEAR">     0</i>
  <i name="SIGMA">      0.01000000</i>
  <i type="logical" name="LWAVE"> F  </i>
  <i type="logical" name="LCHARG"> F  </i>
 </incar>
 <kpoints>
  <generation param="Gamma">
   <v type="int" name="divisions">      24      24      24</v>
   <v name="usershift">      0.00000000      0.00000000      0.00000000</v>
   <v name="genvec1">      0.04166667      0.00000000      0.00000000</v>
   <v name="genvec2">      0.00000000      0.04166667      0.00000000</v>
   <v name="genvec3">      0.00000000      0.00000000      0.04166667</v>
   <v name="shift">      0.00000000      0.00000000      0.00000000</v>
  </generation>
  <varray name="kpointlist" >
   <v>       0.00000000      0.00000000      0.00000000</v>
   <v>       0.04166667      0.00000000      0.00000000</v>
   <v>       0.08333333      0.00000000      0.00000000</v>
   <v>       0.12500000      0.00000000      0.00000000</v>
   <v>       0.16666667      0.00000000      0.00000000</v>
   <v>       0.20833333      0.00000000      0.00000000</v>
   <v>       0.25000000      0.00000000      0.00000000</v>
   <v>       0.29166667      0.00000000      0.00000000</v>
   <v>       0.33333333      0.00000000      0.00000000</v>
   <v>       0.37500000      0.00000000      0.00000000</v>
   <v>       0.41666667      0.00000000      0.00000000</v>
   <v>       0.45833333      0.00000000      0.00000000</v>
   <v>       0.50000000      0.00000000      0.00000000</v>
   <v>       0.04166667      0.04166667      0.00000000</v>
   <v>       0.08333333      0.04166667      0.00000000</v>
   <v>       0.12500000      0.04166667      0.00000000</v>
   <v>       0.16666667      0.04166667      0.00000000</v>
   <v>       0.20833333      0.04166667      0.00000000</v>
   <v>       0.25000000      0.04166667      0.00000000</v>
   <v>       0.29166667      0.04166667      0.00000000</v>
   <v>       0.33333333      0.04166667      0.00000000</v>
   <v>       0.37500000      0.04166667      0.00000000</v>
   <v>       0.41666667      0.04166667      0.00000000</v>
   <v>       0.45833333      0.04166667      0.00000000</v>
   <v>       0.50000000      0.04166667      0.00000000</v>
   <v>       0.08333333      0.08333333      0.00000000</v>
   <v>       0.12500000      0.08333333      0.00000000</v>
   <v>       0.16666667      0.08333333      0.00000000</v>
   <v>       0.20833333      0.08333333      0.00000000</v>
   <v>       0.25000000      0.08333333      0.00000000</v>
   <v>       0.29166667      0.08333333      0.00000000</v>
   <v>       0.33333333      0.08333333      0.00000000</v>
   <v>       0.37500000      0.08333333      0.00000000</v>
   <v>       0.41666667      0.08333333      0.00000000</v>
   <v>       0.45833333      0.08333333      0.00000000</v>
   <v>       0.50000000      0.08333333      0.00000000</v>
   <v>       0.12500000      0.12500000      0.00000000</v>
   <v>       0.16666667      0.12500000      0.00000000</v>
   <v>       0.20833333      0.12500000      0.00000000</v>
   <v>       0.25000000      0.12500000      0.00000000</v>
   <v>       0.29166667      0.12500000      0.00000000</v>
   <v>       0.33333333      0.12500000      0.00000000</v>
   <v>       0.37500000      0.12500000      0.00000000</v>
   <v>       0.41666667      0.12500000      0.00000000</v>
   <v>       0.45833333      0.12500000      0.00000000</v>
   <v>       0.50000000      0.12500000      0.00000000</v>
   <v>       0.16666667      0.16666667      0.00000000</v>
   <v>       0.20833333      0.16666667      0.00000000</v>
   <v>       0.25000000      0.16666667      0.00000000</v>
   <v>       0.29166667      0.16666667      0.00000000</v>
   <v>       0.33333333      0.16666667      0.00000000</v>
   <v>       0.37500000      0.16666667      0.00000000</v>
   <v>       0.41666667      0.16666667      0.00000000</v>
   <v>       0.45833333      0.16666667      0.00000000</v>
   <v>       0.50000000      0.16666667      0.00000000</v>
   <v>       0.20833333      0.20833333      0.00000000</v>
   <v>       0.25000000      0.20833333      0.00000000</v>
   <v>       0.29166667      0.20833333      0.00000000</v>
   <v>       0.33333333      0.20833333      0.00000000</v>
   <v>       0.37500000      0.20833333      0.00000000</v>
   <v>       0.41666667      0.20833333      0.00000000</v>
   <v>       0.45833333      0.20833333      0.00000000</v>
   <v>       0.50000000      0.20833333      0.00000000</v>
   <v>       0.25000000      0.25000000      0.00000000</v>
   <v>       0.29166667      0.25000000      0.00000000</v>
   <v>       0.33333333      0.25000000      0.00000000</v>
   <v>       0.37500000      0.25000000      0.00000000</v>
   <v>       0.41666667      0.25000000      0.00000000</v>
   <v>       0.45833333      0.25000000      0.00000000</v>
   <v>       0.50000000      0.25000000      0.00000000</v>
   <v>       0.29166667      0.29166667      0.00000000</v>
   <v>       0.33333333      0.29166667      0.00000000</v>
   <v>       0.37500000      0.29166667      0.00000000</v>
   <v>       0.41666667      0.29166667      0.00000000</v>
   <v>       0.45833333      0.29166667      0.00000000</v>
   <v>       0.50000000      0.29166667      0.00000000</v>
   <v>       0.33333333      0.33333333      0.00000000</v>
   <v>       0.37500000      0.33333333      0.00000000</v>
   <v>       0.41666667      0.33333333      0.00000000</v>
   <v>       0.45833333      0.33333333      0.00000000</v>
   <v>       0.50000000      0.33333333      0.00000000</v>
   <v>       0.37500000      0.37500000      0.00000000</v>
   <v>       0.41666667      0.37500000      0.00000000</v>
   <v>       0.45833333      0.37500000      0.00000000</v>
   <v>       0.50000000      0.37500000      0.00000000</v>
   <v>       0.41666667      0.41666667      0.00000000</v>
   <v>       0.45833333      0.41666667      0.00000000</v>
   <v>       0.50000000      0.41666667      0.00000000</v>
   <v>       0.45833333      0.45833333      0.00000000</v>
   <v>       0.50000000      0.45833333      0.00000000</v>
   <v>       0.50000000      0.50000000      0.00000000</v>
   <v>       0.04166667      0.04166667      0.04166667</v>
   <v>       0.08333333      0.04166667      0.04166667</v>
   <v>       0.12500000      0.04166667      0.04166667</v>
   <v>       0.16666667      0.04166667      0.04166667</v>
   <v>       0.20833333      0.04166667      0.04166667</v>
   <v>       0.25000000      0.04166667      0.04166667</v>
   <v>       0.29166667      0.04166667      0.04166667</v>
   <v>       0.33333333      0.04166667      0.04166667</v>
   <v>       0.37500000      0.04166667      0.04166667</v>
   <v>       0.41666667      0.04166667      0.04166667</v>
   <v>       0.45833333      0.04166667      0.04166667</v>
   <v>       0.50000000      0.04166667      0.04166667</v>
   <v>       0.08333333      0.08333333      0.04166667</v>
   <v>       0.12500000      0.08333333      0.04166667</v>
   <v>       0.16666667      0.08333333      0.04166667</v>
   <v>       0.20833333      0.08333333      0.04166667</v>
   <v>       0.25000000      0.08333333      0.04166667</v>
   <v>       0.29166667      0.08333333      0.04166667</v>
   <v>       0.33333333      0.08333333      0.04166667</v>
   <v>       0.37500000      0.08333333      0.04166667</v>
   <v>       0.41666667      0.08333333      0.04166667</v>
   <v>       0.45833333      0.08333333      0.04166667</v>
   <v>       0.50000000      0.08333333      0.04166667</v>
   <v>       0.12500000      0.12500000      0.04166667</v>
   <v>       0.16666667      0.12500000      0.04166667</v>
   <v>       0.20833333      0.12500000      0.04166667</v>
   <v>       0.25000000      0.12500000      0.04166667</v>
   <v>       0.29166667      0.12500000      0.04166667</v>
   <v>       0.33333333      0.12500000      0.04166667</v>
   <v>       0.37500000      0.12500000      0.04166667</v>
   <v>       0.41666667      0.12500000      0.04166667</v>
   <v>       0.45833333      0.12500000      0.04166667</v>
   <v>       0.50000000      0.12500000      0.04166667</v>
   <v>       0.16666667      0.16666667      0.04166667</v>
   <v>       0.20833333      0.16666667      0.04166667</v>
   <v>       0.25000000      0.16666667      0.04166667</v>
   <v>       0.29166667      0.16666667      0.04166667</v>
   <v>       0.33333333      0.16666667      0.04166667</v>
   <v>       0.37500000      0.16666667      0.04166667</v>
   <v>       0.41666667      0.16666667      0.04166667</v>
   <v>       0.45833333      0.16666667      0.04166667</v>
   <v>       0.50000000      0.16666667      0.04166667</v>
   <v>       0.20833333      0.20833333      0.04166667</v>
   <v>       0.25000000      0.20833333      0.04166667</v>
   <v>       0.29166667      0.20833333      0.04166667</v>
   <v>       0.33333333      0.20833333      0.04166667</v>
   <v>       0.37500000      0.20833333      0.04166667</v>
   <v>       0.41666667      0.20833333      0.04166667</v>
   <v>       0.45833333      0.20833333      0.04166667</v>
   <v>       0.50000000      0.20833333      0.04166667</v>
   <v>       0.25000000      0.25000000      0.04166667</v>
   <v>       0.29166667      0.25000000      0.04166667</v>
   <v>       0.33333333      0.25000000      0.04166667</v>
   <v>       0.37500000      0.25000000      0.04166667</v>
   <v>       0.41666667      0.25000000      0.04166667</v>
   <v>       0.45833333      0.25000000      0.04166667</v>
   <v>       0.50000000      0.25000000      0.04166667</v>
   <v>       0.29166667      0.29166667      0.04166667</v>
   <v>       0.33333333      0.29166667      0.04166667</v>
   <v>       0.37500000      0.29166667      0.04166667</v>
   <v>       0.41666667      0.29166667      0.04166667</v>
   <v>       0.45833333      0.29166667      0.04166667</v>
   <v>       0.50000000      0.29166667      0.04166667</v>
   <v>       0.33333333      0.33333333      0.04166667</v>
   <v>       0.37500000      0.33333333      0.04166667</v>
   <v>       0.41666667      0.33333333      0.04166667</v>
   <v>       0.45833333      0.33333333      0.04166667</v>
   <v>       0.50000000      0.33333333      0.04166667</v>
   <v>       0.37500000      0.37500000      0.04166667</v>
   <v>       0.41666667      0.37500000      0.04166667</v>
   <v>       0.45833333      0.37500000      0.04166667</v>
   <v>       0.50000000      0.37500000      0.04166667</v>
   <v>       0.41666667      0.41666667      0.04166667</v>
   <v>       0.45833333      0.41666667      0.04166667</v>
   <v>       0.50000000      0.41666667      0.04166667</v>
   <v>       0.45833333      0.45833333      0.04166667</v>
   <v>       0.50000000      0.45833333      0.04166667</v>
   <v>       0.50000000      0.50000000      0.04166667</v>
   <v>       0.08333333      0.08333333      0.08333333</v>
   <v>       0.12500000      0.08333333      0.08333333</v>
   <v>       0.16666667      0.08333333      0.08333333</v>
   <v>       0.20833333      0.08333333      0.08333333</v>
   <v>       0.25000000      0.08333333      0.08333333</v>
   <v>       0.29166667      0.08333333      0.08333333</v>
   <v>       0.33333333      0.08333333      0.08333333</v>
   <v>       0.37500000      0.08333333      0.08333333</v>
   <v>       0.41666667      0.08333333      0.08333333</v>
   <v>       0.45833333      0.08333333      0.08333333</v>
   <v>       0.50000000      0.08333333      0.08333333</v>
   <v>       0.12500000      0.12500000      0.08333333</v>
   <v>       0.16666667      0.12500000      0.08333333</v>
   <v>       0.20833333      0.12500000      0.08333333</v>
   <v>       0.25000000      0.12500000      0.08333333</v>
   <v>       0.29166667      0.12500000      0.08333333</v>
   <v>       0.33333333      0.12500000      0.08333333</v>
   <v>       0.37500000      0.12500000      0.08333333</v>
   <v>       0.41666667      0.12500000      0.08333333</v>
   <v>       0.45833333      0.12500000      0.08333333</v>
   <v>       0.50000000      0.12500000      0.08333333</v>
   <v>       0.16666667      0.16666667      0.08333333</v>
   <v>       0.20833333      0.16666667      0.08333333</v>
   <v>       0.25000000      0.16666667      0.08333333</v>
   <v>       0.29166667      0.16666667      0.08333333</v>
   <v>       0.33333333      0.16666667      0.08333333</v>
   <v>       0.37500000      0.16666667      0.08333333</v>
   <v>       0.41666667      0.16666667      0.08333333</v>
   <v>       0.45833333      0.16666667      0.08333333</v>
   <v>       0.50000000      0.16666667      0.08333333</v>
   <v>       0.20833333      0.20833333      0.08333333</v>
   <v>       0.25000000      0.20833333      0.08333333</v>
   <v>       0.29166667      0.20833333      0.08333333</v>
   <v>       0.33333333      0.20833333      0.08333333</v>
   <v>       0.37500000      0.20833333      0.08333333</v>
   <v>       0.41666667      0.20833333      0.08333333</v>
   <v>       0.45833333      0.20833333      0.08333333</v>
   <v>       0.50000000      0.20833333      0.08333333</v>
   <v>       0.25000000      0.25000000      0.08333333</v>
   <v>       0.29166667      0.25000000      0.08333333</v>
   <v>       0.33333333      0.25000000      0.08333333</v>
   <v>       0.37500000      0.25000000      0.08333333</v>
   <v>       0.41666667      0.25000000      0.08333333</v>
   <v>       0.45833333      0.25000000      0.08333333</v>
   <v>       0.50000000      0.25000000      0.08333333</v>
   <v>       0.29166667      0.29166667      0.08333333</v>
   <v>       0.33333333      0.29166667      0.08333333</v>
   <v>       0.37500000      0.29166667      0.08333333</v>
   <v>       0.41666667      0.29166667      0.08333333</v>
   <v>       0.45833333      0.29166667      0.08333333</v>
   <v>       0.50000000      0.29166667      0.08333333</v>
   <v>       0.33333333      0.33333333      0.08333333</v>
   <v>       0.37500000      0.33333333      0.08333333</v>
   <v>       0.41666667      0.33333333      0.08333333</v>
   <v>       0.45833333      0.33333333      0.08333333</v>
   <v>       0.50000000      0.33333333      0.08333333</v>
   <v>       0.37500000      0.37500000      0.08333333</v>
   <v>       0.41666667      0.37500000      0.08333333</v>
   <v>       0.45833333      0.37500000      0.08333333</v>
   <v>       0.50000000      0.37500000      0.08333333</v>
   <v>       0.41666667      0.41666667      0.08333333</v>
   <v>       0.45833333      0.41666667      0.08333333</v>
   <v>       0.50000000      0.41666667      0.08333333</v>
   <v>       0.45833333      0.45833333      0.08333333</v>
   <v>       0.50000000      0.45833333      0.08333333</v>
   <v>       0.50000000      0.50000000      0.08333333</v>
   <v>       0.12500000      0.12500000      0.12500000</v>
   <v>       0.16666667      0.12500000      0.12500000</v>
   <v>       0.20833333      0.12500000      0.12500000</v>
   <v>       0.25000000      0.12500000      0.12500000</v>
   <v>       0.29166667      0.12500000      0.12500000</v>
   <v>       0.33333333      0.12500000      0.12500000</v>
   <v>       0.37500000      0.12500000      0.12500000</v>
   <v>       0.41666667      0.12500000      0.12500000</v>
   <v>       0.45833333      0.12500000      0.12500000</v>
   <v>       0.50000000      0.12500000      0.12500000</v>
   <v>       0.16666667      0.16666667      0.12500000</v>
   <v>       0.20833333      0.16666667      0.12500000</v>
   <v>       0.25000000      0.16666667      0.12500000</v>
   <v>       0.29166667      0.16666667      0.12500000</v>
   <v>       0.33333333      0.16666667      0.12500000</v>
   <v>       0.37500000      0.16666667      0.12500000</v>
   <v>       0.41666667      0.16666667      0.12500000</v>
   <v>       0.45833333      0.16666667      0.12500000</v>
   <v>       0.50000000      0.16666667      0.12500000</v>
   <v>       0.20833333      0.20833333      0.12500000</v>
   <v>       0.25000000      0.20833333      0.12500000</v>
   <v>       0.29166667      0.20833333      0.12500000</v>
   <v>       0.33333333      0.20833333      0.12500000</v>
   <v>       0.37500000      0.20833333      0.12500000</v>
   <v>       0.41666667      0.20833333      0.12500000</v>
   <v>       0.45833333      0.20833333      0.12500000</v>
   <v>       0.50000000      0.20833333      0.12500000</v>
   <v>       0.25000000      0.25000000      0.12500000</v>
   <v>       0.29166667      0.25000000      0.12500000</v>
   <v>       0.33333333      0.25000000      0.12500000</v>
   <v>       0.37500000      0.25000000      0.12500000</v>
   <v>       0.41666667      0.25000000      0.12500000</v>
   <v>       0.45833333      0.25000000      0.12500000</v>
   <v>       0.50000000      0.25000000      0.12500000</v>
   <v>       0.29166667      0.29166667      0.12500000</v>
   <v>       0.33333333      0.29166667      0.12500000</v>
   <v>       0.37500000      0.29166667      0.12500000</v>
   <v>       0.41666667      0.29166667      0.12500000</v>
   <v>       0.45833333      0.29166667      0.12500000</v>
   <v>       0.50000000      0.29166667      0.12500000</v>
   <v>       0.33333333      0.33333333      0.12500000</v>
   <v>       0.37500000      0.33333333      0.12500000</v>
   <v>       0.41666667      0.33333333      0.12500000</v>
   <v>       0.45833333      0.33333333      0.12500000</v>
   <v>       0.50000000      0.33333333      0.12500000</v>
   <v>       0.37500000      0.37500000      0.12500000</v>
   <v>       0.41666667      0.37500000      0.12500000</v>
   <v>       0.45833333      0.37500000      0.12500000</v>
   <v>       0.50000000      0.37500000      0.12500000</v>
   <v>       0.41666667      0.41666667      0.12500000</v>
   <v>       0.45833333      0.41666667      0.12500000</v>
   <v>       0.50000000      0.41666667      0.12500000</v>
   <v>       0.45833333      0.45833333      0.12500000</v>
   <v>       0.50000000      0.45833333      0.12500000</v>
   <v>       0.50000000      0.50000000      0.12500000</v>
   <v>       0.16666667      0.16666667      0.16666667</v>
   <v>       0.20833333      0.16666667      0.16666667</v>
   <v>       0.25000000      0.16666667      0.16666667</v>
   <v>       0.29166667      0.16666667      0.16666667</v>
   <v>       0.33333333      0.16666667      0.16666667</v>
   <v>       0.37500000      0.16666667      0.16666667</v>
   <v>       0.41666667      0.16666667      0.16666667</v>
   <v>       0.45833333      0.16666667      0.16666667</v>
   <v>       0.50000000      0.16666667      0.16666667</v>
   <v>       0.20833333      0.20833333      0.16666667</v>
   <v>       0.25000000      0.20833333      0.16666667</v>
   <v>       0.29166667      0.20833333      0.16666667</v>
   <v>       0.33333333      0.20833333      0.16666667</v>
   <v>       0.37500000      0.20833333      0.16666667</v>
   <v>       0.41666667      0.20833333      0.16666667</v>
   <v>       0.45833333      0.20833333      0.16666667</v>
   <v>       0.50000000      0.20833333      0.16666667</v>
   <v>       0.25000000      0.25000000      0.16666667</v>
   <v>       0.29166667      0.25000000      0.16666667</v>
   <v>       0.33333333      0.25000000      0.16666667</v>
   <v>       0.37500000      0.25000000      0.16666667</v>
   <v>       0.41666667      0.25000000      0.16666667</v>
   <v>       0.45833333      0.25000000      0.16666667</v>
   <v>       0.50000000      0.25000000      0.16666667</v>
   <v>       0.29166667      0.29166667      0.16666667</v>
   <v>       0.33333333      0.29166667      0.16666667</v>
   <v>       0.37500000      0.29166667      0.16666667</v>
   <v>       0.41666667      0.29166667      0.16666667</v>
   <v>       0.45833333      0.29166667      0.16666667</v>
   <v>       0.50000000      0.29166667      0.16666667</v>
   <v>       0.33333333      0.33333333      0.16666667</v>
   <v>       0.37500000      0.33333333      0.16666667</v>
   <v>       0.41666667      0.33333333      0.16666667</v>
   <v>       0.45833333      0.33333333      0.16666667</v>
   <v>       0.50000000      0.33333333      0.16666667</v>
   <v>       0.37500000      0.37500000      0.16666667</v>
   <v>       0.41666667      0.37500000      0.16666667</v>
   <v>       0.45833333      0.37500000      0.16666667</v>
   <v>       0.50000000      0.37500000      0.16666667</v>
   <v>       0.41666667      0.41666667      0.16666667</v>
   <v>       0.45833333      0.41666667      0.16666667</v>
   <v>       0.50000000      0.41666667      0.16666667</v>
   <v>       0.45833333      0.45833333      0.16666667</v>
   <v>       0.50000000      0.45833333      0.16666667</v>
   <v>       0.50000000      0.50000000      0.16666667</v>
   <v>       0.20833333      0.20833333      0.20833333</v>
   <v>       0.25000000      0.20833333      0.20833333</v>
   <v>       0.29166667      0.20833333      0.20833333</v>
   <v>       0.33333333      0.20833333      0.20833333</v>
   <v>       0.37500000      0.20833333      0.20833333</v>
   <v>       0.41666667      0.20833333      0.20833333</v>
   <v>       0.45833333      0.20833333      0.20833333</v>
   <v>       0.50000000      0.20833333      0.20833333</v>
   <v>       0.25000000      0.25000000      0.20833333</v>
   <v>       0.29166667      0.25000000      0.20833333</v>
   <v>       0.33333333      0.25000000      0.20833333</v>
   <v>       0.37500000      0.25000000      0.20833333</v>
   <v>       0.41666667      0.25000000      0.20833333</v>
   <v>       0.45833333      0.25000000      0.20833333</v>
   <v>       0.50000000      0.25000000      0.20833333</v>
   <v>       0.29166667      0.29166667      0.20833333</v>
   <v>       0.33333333      0.29166667      0.20833333</v>
   <v>       0.37500000      0.29166667      0.20833333</v>
   <v>       0.41666667      0.29166667      0.20833333</v>
   <v>       0.45833333      0.29166667      0.20833333</v>
   <v>       0.50000000      0.29166667      0.20833333</v>
   <v>       0.33333333      0.33333333      0.20833333</v>
   <v>       0.37500000      0.33333333      0.20833333</v>
   <v>       0.41666667      0.33333333      0.20833333</v>
   <v>       0.45833333      0.33333333      0.20833333</v>
   <v>       0.50000000      0.33333333      0.20833333</v>
   <v>       0.37500000      0.37500000      0.20833333</v>
   <v>       0.41666667      0.37500000      0.20833333</v>
   <v>       0.45833333      0.37500000      0.20833333</v>
   <v>       0.50000000      0.37500000      0.20833333</v>
   <v>       0.41666667      0.41666667      0.20833333</v>
   <v>       0.45833333      0.41666667      0.20833333</v>
   <v>       0.50000000      0.41666667      0.20833333</v>
   <v>       0.45833333      0.45833333      0.20833333</v>
   <v>       0.50000000      0.45833333      0.20833333</v>
   <v>       0.50000000      0.50000000      0.20833333</v>
   <v>       0.25000000      0.25000000      0.25000000</v>
   <v>       0.29166667      0.25000000      0.25000000</v>
   <v>       0.33333333      0.25000000      0.25000000</v>
   <v>       0.37500000      0.25000000      0.25000000</v>
   <v>       0.41666667      0.25000000      0.25000000</v>
   <v>       0.45833333      0.25000000      0.25000000</v>
   <v>       0.50000000      0.25000000      0.25000000</v>
   <v>       0.29166667      0.29166667      0.25000000</v>
   <v>       0.33333333      0.29166667      0.25000000</v>
   <v>       0.37500000      0.29166667      0.25000000</v>
   <v>       0.41666667      0.29166667      0.25000000</v>
   <v>       0.45833333      0.29166667      0.25000000</v>
   <v>       0.50000000      0.29166667      0.25000000</v>
   <v>       0.33333333      0.33333333      0.25000000</v>
   <v>       0.37500000      0.33333333      0.25000000</v>
   <v>       0.41666667      0.33333333      0.25000000</v>
   <v>       0.45833333      0.33333333      0.25000000</v>
   <v>       0.50000000      0.33333333      0.25000000</v>
   <v>       0.37500000      0.37500000      0.25000000</v>
   <v>       0.41666667      0.37500000      0.25000000</v>
   <v>       0.45833333      0.37500000      0.25000000</v>
   <v>       0.50000000      0.37500000      0.25000000</v>
   <v>       0.41666667      0.41666667      0.25000000</v>
   <v>       0.45833333      0.41666667      0.25000000</v>
   <v>       0.50000000      0.41666667      0.25000000</v>
   <v>       0.45833333      0.45833333      0.25000000</v>
   <v>       0.50000000      0.45833333      0.25000000</v>
   <v>       0.50000000      0.50000000      0.25000000</v>
   <v>       0.29166667      0.29166667      0.29166667</v>
   <v>       0.33333333      0.29166667      0.29166667</v>
   <v>       0.37500000      0.29166667      0.29166667</v>
   <v>       0.41666667      0.29166667      0.29166667</v>
   <v>       0.45833333      0.29166667      0.29166667</v>
   <v>       0.50000000      0.29166667      0.29166667</v>
   <v>       0.33333333      0.33333333      0.29166667</v>
   <v>       0.37500000      0.33333333      0.29166667</v>
   <v>       0.41666667      0.33333333      0.29166667</v>
   <v>       0.45833333      0.33333333      0.29166667</v>
   <v>       0.50000000      0.33333333      0.29166667</v>
   <v>       0.37500000      0.37500000      0.29166667</v>
   <v>       0.41666667      0.37500000      0.29166667</v>
   <v>       0.45833333      0.37500000      0.29166667</v>
   <v>       0.50000000      0.37500000      0.29166667</v>
   <v>       0.41666667      0.41666667      0.29166667</v>
   <v>       0.45833333      0.41666667      0.29166667</v>
   <v>       0.50000000      0.41666667      0.29166667</v>
   <v>       0.45833333      0.45833333      0.29166667</v>
   <v>       0.50000000      0.45833333      0.29166667</v>
   <v>       0.50000000      0.50000000      0.29166667</v>
   <v>       0.33333333      0.33333333      0.33333333</v>
   <v>       0.37500000      0.33333333      0.33333333</v>
   <v>       0.41666667      0.33333333      0.33333333</v>
   <v>       0.45833333      0.33333333      0.33333333</v>
   <v>       0.50000000      0.33333333      0.33333333</v>
   <v>       0.37500000      0.37500000      0.33333333</v>
   <v>       0.41666667      0.37500000      0.33333333</v>
   <v>       0.45833333      0.37500000      0.33333333</v>
   <v>       0.50000000      0.37500000      0.33333333</v>
   <v>       0.41666667      0.41666667      0.33333333</v>
   <v>       0.45833333      0.41666667      0.33333333</v>
   <v>       0.50000000      0.41666667      0.33333333</v>
   <v>       0.45833333      0.45833333      0.33333333</v>
   <v>       0.50000000      0.45833333      0.33333333</v>
   <v>       0.50000000      0.50000000      0.33333333</v>
   <v>       0.37500000      0.37500000      0.37500000</v>
   <v>       0.41666667      0.37500000      0.37500000</v>
   <v>       0.45833333      0.37500000      0.37500000</v>
   <v>       0.50000000      0.37500000      0.37500000</v>
   <v>       0.41666667      0.41666667      0.37500000</v>
   <v>       0.45833333      0.41666667      0.37500000</v>
   <v>       0.50000000      0.41666667      0.37500000</v>
   <v>       0.45833333      0.45833333      0.37500000</v>
   <v>       0.50000000      0.45833333      0.37500000</v>
   <v>       0.50000000      0.50000000      0.37500000</v>
   <v>       0.41666667      0.41666667      0.41666667</v>
   <v>       0.45833333      0.41666667      0.41666667</v>
   <v>       0.50000000      0.41666667      0.41666667</v>
   <v>       0.45833333      0.45833333      0.41666667</v>
   <v>       0.50000000      0.45833333      0.41666667</v>
   <v>       0.50000000      0.50000000      0.41666667</v>
   <v>       0.45833333      0.45833333      0.45833333</v>
   <v>       0.50000000      0.45833333      0.45833333</v>
   <v>       0.50000000      0.50000000      0.45833333</v>
   <v>       0.50000000      0.50000000      0.50000000</v>
  </varray>
  <varray name="weights" >
   <v>       0.00007234</v>
   <v>       0.00043403</v>
   <v>       0.00043403</v>
   <v>       0.00043403</v>
   <v>       0.00043403</v>
   <v>       0.00043403</v>
   <v>       0.00043403</v>
   <v>       0.00043403</v>
   <v>       0.00043403</v>
   <v>       0.00043403</v>
   <v>       0.00043403</v>
   <v>       0.00043403</v>
   <v>       0.00021701</v>
   <v>       0.00086806</v>
   <v>       0.00173611</v>
   <v>       0.00173611</v>
   <v>       0.00173611</v>
   <v>       0.00173611</v>
   <v>       0.00173611</v>
   <v>       0.00173611</v>
   <v>       0.00173611</v>
   <v>       0.00173611</v>
   <v>       0.00173611</v>
   <v>       0.00173611</v>
   <v>       0.00086806</v>
   <v>       0.00086806</v>
   <v>       0.00173611</v>
   <v>       0.00173611</v>
   <v>       0.00173611</v>
   <v>       0.00173611</v>
   <v>       0.00173611</v>
   <v>       0.00173611</v>
   <v>       0.00173611</v>
   <v>       0.00173611</v>
   <v>       0.00173611</v>
   <v>       0.00086806</v>
   <v>       0.00086806</v>
   <v>       0.00173611</v>
   <v>       0.00173611</v>
   <v>       0.00173611</v>
   <v>       0.00173611</v>
   <v>       0.00173611</v>
   <v>       0.00173611</v>
   <v>       0.00173611</v>
   <v>       0.00173611</v>
   <v>       0.00086806</v>
   <v>       0.00086806</v>
   <v>       0.00173611</v>
   <v>       0.00173611</v>
   <v>       0.00173611</v>
   <v>       0.00173611</v>
   <v>       0.00173611</v>
   <v>       0.00173611</v>
   <v>       0.00173611</v>
   <v>       0.00086806</v>
   <v>       0.00086806</v>
   <v>       0.00173611</v>
   <v>       0.00173611</v>
   <v>       0.00173611</v>
   <v>       0.00173611</v>
   <v>       0.00173611</v>
   <v>       0.00173611</v>
   <v>       0.00086806</v>
   <v>       0.00086806</v>
   <v>       0.00173611</v>
   <v>       0.00173611</v>
   <v>       0.00173611</v>
   <v>       0.00173611</v>
   <v>       0.00173611</v>
   <v>       0.00086806</v>
   <v>       0.00086806</v>
   <v>       0.00173611</v>
   <v>       0.00173611</v>
   <v>       0.00173611</v>
   <v>       0.00173611</v>
   <v>       0.00086806</v>
   <v>       0.00086806</v>
   <v>       0.00173611</v>
   <v>       0.00173611</v>
   <v>       0.00173611</v>
   <v>       0.00086806</v>
   <v>       0.00086806</v>
   <v>       0.00173611</v>
   <v>       0.00173611</v>
   <v>       0.00086806</v>
   <v>       0.00086806</v>
   <v>       0.00173611</v>
   <v>       0.00086806</v>
   <v>       0.00086806</v>
   <v>       0.00086806</v>
   <v>       0.00021701</v>
   <v>       0.00057870</v>
   <v>       0.00173611</v>
   <v>       0.00173611</v>
   <v>       0.00173611</v>
   <v>       0.00173611</v>
   <v>       0.00173611</v>
   <v>       0.00173611</v>
   <v>       0.00173611</v>
   <v>       0.00173611</v>
   <v>       0.00173611</v>
   <v>       0.00173611</v>
   <v>       0.00086806</v>
   <v>       0.00173611</v>
   <v>       0.00347222</v>
   <v>       0.00347222</v>
   <v>       0.00347222</v>
   <v>       0.00347222</v>
   <v>       0.00347222</v>
   <v>       0.00347222</v>
   <v>       0.00347222</v>
   <v>       0.00347222</v>
   <v>       0.00347222</v>
   <v>       0.00173611</v>
   <v>       0.00173611</v>
   <v>       0.00347222</v>
   <v>       0.00347222</v>
   <v>       0.00347222</v>
   <v>       0.00347222</v>
   <v>       0.00347222</v>
   <v>       0.00347222</v>
   <v>       0.00347222</v>
   <v>       0.00347222</v>
   <v>       0.00173611</v>
   <v>       0.00173611</v>
   <v>       0.00347222</v>
   <v>       0.00347222</v>
   <v>       0.00347222</v>
   <v>       0.00347222</v>
   <v>       0.00347222</v>
   <v>       0.00347222</v>
   <v>       0.00347222</v>
   <v>       0.00173611</v>
   <v>       0.00173611</v>
   <v>       0.00347222</v>
   <v>       0.00347222</v>
   <v>       0.00347222</v>
   <v>       0.00347222</v>
   <v>       0.00347222</v>
   <v>       0.00347222</v>
   <v>       0.00173611</v>
   <v>       0.00173611</v>
   <v>       0.00347222</v>
   <v>       0.00347222</v>
   <v>       0.00347222</v>
   <v>       0.00347222</v>
   <v>       0.00347222</v>
   <v>       0.00173611</v>
   <v>       0.00173611</v>
   <v>       0.00347222</v>
   <v>       0.00347222</v>
   <v>       0.00347222</v>
   <v>       0.00347222</v>
   <v>       0.00173611</v>
   <v>       0.00173611</v>
   <v>       0.00347222</v>
   <v>       0.00347222</v>
   <v>       0.00347222</v>
   <v>       0.00173611</v>
   <v>       0.00173611</v>
   <v>       0.00347222</v>
   <v>       0.00347222</v>
   <v>       0.00173611</v>
   <v>       0.00173611</v>
   <v>       0.00347222</v>
   <v>       0.00173611</v>
   <v>       0.00173611</v>
   <v>       0.00173611</v>
   <v>       0.00043403</v>
   <v>       0.00057870</v>
   <v>       0.00173611</v>
   <v>       0.00173611</v>
   <v>       0.00173611</v>
   <v>       0.00173611</v>
   <v>       0.00173611</v>
   <v>       0.00173611</v>
   <v>       0.00173611</v>
   <v>       0.00173611</v>
   <v>       0.00173611</v>
   <v>       0.00086806</v>
   <v>       0.00173611</v>
   <v>       0.00347222</v>
   <v>       0.00347222</v>
   <v>       0.00347222</v>
   <v>       0.00347222</v>
   <v>       0.00347222</v>
   <v>       0.00347222</v>
   <v>       0.00347222</v>
   <v>       0.00347222</v>
   <v>       0.00173611</v>
   <v>       0.00173611</v>
   <v>       0.00347222</v>
   <v>       0.00347222</v>
   <v>       0.00347222</v>
   <v>       0.00347222</v>
   <v>       0.00347222</v>
   <v>       0.00347222</v>
   <v>       0.00347222</v>
   <v>       0.00173611</v>
   <v>       0.00173611</v>
   <v>       0.00347222</v>
   <v>       0.00347222</v>
   <v>       0.00347222</v>
   <v>       0.00347222</v>
   <v>       0.00347222</v>
   <v>       0.00347222</v>
   <v>       0.00173611</v>
   <v>       0.00173611</v>
   <v>       0.00347222</v>
   <v>       0.00347222</v>
   <v>       0.00347222</v>
   <v>       0.00347222</v>
   <v>       0.00347222</v>
   <v>       0.00173611</v>
   <v>       0.00173611</v>
   <v>       0.00347222</v>
   <v>       0.00347222</v>
   <v>       0.00347222</v>
   <v>       0.00347222</v>
   <v>       0.00173611</v>
   <v>       0.00173611</v>
   <v>       0.00347222</v>
   <v>       0.00347222</v>
   <v>       0.00347222</v>
   <v>       0.00173611</v>
   <v>       0.00173611</v>
   <v>       0.00347222</v>
   <v>       0.00347222</v>
   <v>       0.00173611</v>
   <v>       0.00173611</v>
   <v>       0.00347222</v>
   <v>       0.00173611</v>
   <v>       0.00173611</v>
   <v>       0.00173611</v>
   <v>       0.00043403</v>
   <v>       0.00057870</v>
   <v>       0.00173611</v>
   <v>       0.00173611</v>
   <v>       0.00173611</v>
   <v>       0.00173611</v>
   <v>       0.00173611</v>
   <v>       0.00173611</v>
   <v>       0.00173611</v>
   <v>       0.00173611</v>
   <v>       0.00086806</v>
   <v>       0.00173611</v>
   <v>       0.00347222</v>
   <v>       0.00347222</v>
   <v>       0.00347222</v>
   <v>       0.00347222</v>
   <v>       0.00347222</v>
   <v>       0.00347222</v>
   <v>       0.00347222</v>
   <v>       0.00173611</v>
   <v>       0.00173611</v>
   <v>       0.00347222</v>
   <v>       0.00347222</v>
   <v>       0.00347222</v>
   <v>       0.00347222</v>
   <v>       0.00347222</v>
   <v>       0.00347222</v>
   <v>       0.00173611</v>
   <v>       0.00173611</v>
   <v>       0.00347222</v>
   <v>       0.00347222</v>
   <v>       0.00347222</v>
   <v>       0.00347222</v>
   <v>       0.00347222</v>
   <v>       0.00173611</v>
   <v>       0.00173611</v>
   <v>       0.00347222</v>
   <v>       0.00347222</v>
   <v>       0.00347222</v>
   <v>       0.00347222</v>
   <v>       0.00173611</v>
   <v>       0.00173611</v>
   <v>       0.00347222</v>
   <v>       0.00347222</v>
   <v>       0.00347222</v>
   <v>       0.00173611</v>
   <v>       0.00173611</v>
   <v>       0.00347222</v>
   <v>       0.00347222</v>
   <v>       0.00173611</v>
   <v>       0.00173611</v>
   <v>       0.00347222</v>
   <v>       0.00173611</v>
   <v>       0.00173611</v>
   <v>       0.00173611</v>
   <v>       0.00043403</v>
   <v>       0.00057870</v>
   <v>       0.00173611</v>
   <v>       0.00173611</v>
   <v>       0.00173611</v>
   <v>       0.00173611</v>
   <v>       0.00173611</v>
   <v>       0.00173611</v>
   <v>       0.00173611</v>
   <v>       0.00086806</v>
   <v>       0.00173611</v>
   <v>       0.00347222</v>
   <v>       0.00347222</v>
   <v>       0.00347222</v>
   <v>       0.00347222</v>
   <v>       0.00347222</v>
   <v>       0.00347222</v>
   <v>       0.00173611</v>
   <v>       0.00173611</v>
   <v>       0.00347222</v>
   <v>       0.00347222</v>
   <v>       0.00347222</v>
   <v>       0.00347222</v>
   <v>       0.00347222</v>
   <v>       0.00173611</v>
   <v>       0.00173611</v>
   <v>       0.00347222</v>
   <v>       0.00347222</v>
   <v>       0.00347222</v>
   <v>       0.00347222</v>
   <v>       0.00173611</v>
   <v>       0.00173611</v>
   <v>       0.00347222</v>
   <v>       0.00347222</v>
   <v>       0.00347222</v>
   <v>       0.00173611</v>
   <v>       0.00173611</v>
   <v>       0.00347222</v>
   <v>       0.00347222</v>
   <v>       0.00173611</v>
   <v>       0.00173611</v>
   <v>       0.00347222</v>
   <v>       0.00173611</v>
   <v>       0.00173611</v>
   <v>       0.00173611</v>
   <v>       0.00043403</v>
   <v>       0.00057870</v>
   <v>       0.00173611</v>
   <v>       0.00173611</v>
   <v>       0.00173611</v>
   <v>       0.00173611</v>
   <v>       0.00173611</v>
   <v>       0.00173611</v>
   <v>       0.00086806</v>
   <v>       0.00173611</v>
   <v>       0.00347222</v>
   <v>       0.00347222</v>
   <v>       0.00347222</v>
   <v>       0.00347222</v>
   <v>       0.00347222</v>
   <v>       0.00173611</v>
   <v>       0.00173611</v>
   <v>       0.00347222</v>
   <v>       0.00347222</v>
   <v>       0.00347222</v>
   <v>       0.00347222</v>
   <v>       0.00173611</v>
   <v>       0.00173611</v>
   <v>       0.00347222</v>
   <v>       0.00347222</v>
   <v>       0.00347222</v>
   <v>       0.00173611</v>
   <v>       0.00173611</v>
   <v>       0.00347222</v>
   <v>       0.00347222</v>
   <v>       0.00173611</v>
   <v>       0.00173611</v>
   <v>       0.00347222</v>
   <v>       0.00173611</v>
   <v>       0.00173611</v>
   <v>       0.00173611</v>
   <v>       0.00043403</v>
   <v>       0.00057870</v>
   <v>       0.00173611</v>
   <v>       0.00173611</v>
   <v>       0.00173611</v>
   <v>       0.00173611</v>
   <v>       0.00173611</v>
   <v>       0.00086806</v>
   <v>       0.00173611</v>
   <v>       0.00347222</v>
   <v>       0.00347222</v>
   <v>       0.00347222</v>
   <v>       0.00347222</v>
   <v>       0.00173611</v>
   <v>       0.00173611</v>
   <v>       0.00347222</v>
   <v>       0.00347222</v>
   <v>       0.00347222</v>
   <v>       0.00173611</v>
   <v>       0.00173611</v>
   <v>       0.00347222</v>
   <v>       0.00347222</v>
   <v>       0.00173611</v>
   <v>       0.00173611</v>
   <v>       0.00347222</v>
   <v>       0.00173611</v>
   <v>       0.00173611</v>
   <v>       0.00173611</v>
   <v>       0.00043403</v>
   <v>       0.00057870</v>
   <v>       0.00173611</v>
   <v>       0.00173611</v>
   <v>       0.00173611</v>
   <v>       0.00173611</v>
   <v>       0.00086806</v>
   <v>       0.00173611</v>
   <v>       0.00347222</v>
   <v>       0.00347222</v>
   <v>       0.00347222</v>
   <v>       0.00173611</v>
   <v>       0.00173611</v>
   <v>       0.00347222</v>
   <v>       0.00347222</v>
   <v>       0.00173611</v>
   <v>       0.00173611</v>
   <v>       0.00347222</v>
   <v>       0.00173611</v>
   <v>       0.00173611</v>
   <v>       0.00173611</v>
   <v>       0.00043403</v>
   <v>       0.00057870</v>
   <v>       0.00173611</v>
   <v>       0.00173611</v>
   <v>       0.00173611</v>
   <v>       0.00086806</v>
   <v>       0.00173611</v>
   <v>       0.00347222</v>
   <v>       0.00347222</v>
   <v>       0.00173611</v>
   <v>       0.00173611</v>
   <v>       0.00347222</v>
   <v>       0.00173611</v>
   <v>       0.00173611</v>
   <v>       0.00173611</v>
   <v>       0.00043403</v>
   <v>       0.00057870</v>
   <v>       0.00173611</v>
   <v>       0.00173611</v>
   <v>       0.00086806</v>
   <v>       0.00173611</v>
   <v>       0.00347222</v>
   <v>       0.00173611</v>
   <v>       0.00173611</v>
   <v>       0.00173611</v>
   <v>       0.00043403</v>
   <v>       0.00057870</v>
   <v>       0.00173611</v>
   <v>       0.00086806</v>
   <v>       0.00173611</v>
   <v>       0.00173611</v>
   <v>       0.00043403</v>
   <v>       0.00057870</v>
   <v>       0.00086806</v>
   <v>       0.00043403</v>
   <v>       0.00007234</v>
  </varray>
 </kpoints>
 <parameters>
  <separator name="general" >
   <i type="string" name="SYSTEM">unknown system</i>
   <i type="logical" name="LCOMPAT"> F  </i>
  </separator>
  <separator name="electronic" >
   <i type="string" name="PREC">accura</i>
   <i name="ENMAX">    800.00000000</i>
   <i name="ENAUG">    516.45600000</i>
   <i name="EDIFF">      0.00000001</i>
   <i type="int" name="IALGO">    38</i>
   <i type="int" name="IWAVPR">    10</i>
   <i type="int" name="NBANDS">    26</i>
   <i name="NELECT">     44.00000000</i>
   <separator name="electronic smearing" >
    <i type="int" name="ISMEAR">     0</i>
    <i name="SIGMA">      0.01000000</i>
   </separator>
   <separator name="electronic projectors" >
    <i type="logical" name="LREAL"> F  </i>
    <v name="ROPT">      0.00000000</v>
    <i type="int" name="LMAXPAW">  -100</i>
    <i type="int" name="LMAXMIX">     2</i>
   </separator>
   <separator name="electronic startup" >
    <i type="int" name="ISTART">     0</i>
    <i type="int" name="ICHARG">     2</i>
    <i type="int" name="INIWAV">     1</i>
   </separator>
   <separator name="electronic spin" >
    <i type="int" name="ISPIN">     1</i>
    <i type="logical" name="LNONCOLLINEAR"> F  </i>
    <v name="MAGMOM">      1.00000000      1.00000000      1.00000000      1.00000000</v>
    <i name="NUPDOWN">     -1.00000000</i>
    <i type="logical" name="LSORBIT"> F  </i>
    <v name="SAXIS">      0.00000000      0.00000000      1.00000000</v>
    <i type="logical" name="LSPIRAL"> F  </i>
    <v name="QSPIRAL">      0.00000000      0.00000000      0.00000000</v>
    <i type="logical" name="LZEROZ"> F  </i>
   </separator>
   <separator name="electronic exchange-correlation" >
    <i type="string" name="GGA">--</i>
    <i type="int" name="VOSKOWN">     0</i>
    <i type="logical" name="LASPH"> F  </i>
    <i type="logical" name="LMETAGGA"> F  </i>
    <i type="string" name="GGA2">--</i>
   </separator>
   <separator name="electronic convergence" >
    <i type="int" name="NELM">    60</i>
    <i type="int" name="NELMDL">    -5</i>
    <i type="int" name="NELMIN">     2</i>
    <i name="ENINI">    800.00000000</i>
    <separator name="electronic convergence detail" >
     <i type="logical" name="LDIAG"> T  </i>
     <i name="WEIMIN">      0.00000000</i>
     <i name="EBREAK">      0.00000000</i>
     <i name="DEPER">      0.30000000</i>
     <i type="int" name="NRMM">     4</i>
     <i name="TIME">      0.10000000</i>
    </separator>
   </separator>
   <separator name="electronic mixer" >
    <i name="AMIX">      0.40000000</i>
    <i name="BMIX">      1.00000000</i>
    <i name="AMIN">      0.10000000</i>
    <i name="AMIX_MAG">      1.60000000</i>
    <i name="BMIX_MAG">      1.00000000</i>
    <separator name="electronic mixer details" >
     <i type="int" name="IMIX">     4</i>
     <i type="int" name="MAXMIX">   -45</i>
     <i name="WC">    100.00000000</i>
     <i type="int" name="INIMIX">     1</i>
     <i type="int" name="MIXPRE">     1</i>
     <i type="int" name="MREMOVE">     5</i>
    </separator>
   </separator>
   <separator name="electronic dipolcorrection" >
    <i type="int" name="IDIPOL">     0</i>
    <i type="logical" name="LDIPOL"> F  </i>
    <v name="DIPOL">   -100.00000000</v>
    <i name="EFIELD">      0.00000000</i>
   </separator>
  </separator>
  <separator name="grids" >
   <i type="int" name="NGX">    36</i>
   <i type="int" name="NGY">    36</i>
   <i type="int" name="NGZ">    36</i>
   <i type="int" name="NGXF">    72</i>
   <i type="int" name="NGYF">    72</i>
   <i type="int" name="NGZF">    72</i>
   <i type="logical" name="ADDGRID"> T  </i>
  </separator>
  <separator name="ionic" >
   <i type="int" name="NSW">     0</i>
   <i type="int" name="IBRION">    -1</i>
   <i type="int" name="ISIF">     2</i>
   <i name="PSTRESS">      0.00000000</i>
   <i name="EDIFFG">      0.00000010</i>
   <i type="int" name="NFREE">     0</i>
   <i name="POTIM">      0.50000000</i>
   <i name="SMASS">     -3.00000000</i>
  </separator>
  <separator name="ionic md" >
   <i name="TEBEG">      0.00010000</i>
   <i name="TEEND">      0.00010000</i>
   <i type="int" name="NBLOCK">     1</i>
   <i type="int" name="KBLOCK">     1</i>
   <i type="int" name="NPACO">   256</i>
   <i name="APACO">     16.00000000</i>
  </separator>
  <separator name="symmetry" >
   <i type="int" name="ISYM">     2</i>
   <i name="SYMPREC">      0.00001000</i>
  </separator>
  <separator name="dos" >
   <i type="logical" name="LORBIT"> F  </i>
   <v name="RWIGS">     -1.00000000</v>
   <i type="int" name="NEDOS">   301</i>
   <i name="EMIN">     10.00000000</i>
   <i name="EMAX">    -10.00000000</i>
  </separator>
  <separator name="writing" >
   <i type="int" name="NWRITE">     2</i>
   <i type="logical" name="LWAVE"> F  </i>
   <i type="logical" name="LCHARG"> F  </i>
   <i type="logical" name="LPARD"> F  </i>
   <i type="logical" name="LVTOT"> F  </i>
   <i type="logical" name="LELF"> F  </i>
   <i type="logical" name="LOPTICS"> F  </i>
   <i name="STM">      0.00000000</i>
  </separator>
  <separator name="performance" >
   <i type="int" name="NPAR">     8</i>
   <i type="int" name="NSIM">     4</i>
   <i type="int" name="NBLK">   256</i>
   <i type="logical" name="LPLANE"> T  </i>
   <i type="logical" name="LCRITICAL_MEM"> F  </i>
   <i type="logical" name="LSCALAPACK"> F  </i>
   <i type="logical" name="LSCALU"> F  </i>
   <i type="logical" name="LASYNC"> F  </i>
  </separator>
  <separator name="miscellaneous" >
   <i type="int" name="IDIOT">     3</i>
   <i type="logical" name="LMUSIC"> F  </i>
   <v name="POMASS">     63.54600000</v>
   <i type="logical" name="LCORR"> T  </i>
  </separator>
  <i type="logical" name="LREAL_COMPAT"> F  </i>
  <i type="logical" name="GGA_COMPAT"> T  </i>
  <i type="logical" name="LBERRY"> F  </i>
  <i type="int" name="ICORELEVEL">     0</i>
  <i type="logical" name="LDAU"> F  </i>
  <i type="int" name="I_CONSTRAINED_M">     0</i>
 </parameters>
 <atominfo>
  <atoms>       4</atoms>
  <types>       1</types>
  <array name="atoms" >
   <dimension dim="1">ion</dimension>
   <field type="string">element</field>
   <field type="int">atomtype</field>
   <set>
    <rc><c>Cu</c><c>   1</c></rc>
    <rc><c>Cu</c><c>   1</c></rc>
    <rc><c>Cu</c><c>   1</c></rc>
    <rc><c>Cu</c><c>   1</c></rc>
   </set>
  </array>
  <array name="atomtypes" >
   <dimension dim="1">type</dimension>
   <field type="int">atomspertype</field>
   <field type="string">element</field>
   <field>mass</field>
   <field>valence</field>
   <field type="string">pseudopotential</field>
   <set>
    <rc><c>   4</c><c>Cu</c><c>     63.54600000</c><c>     11.00000000</c><c> PAW_PBE Cu 05Jan2001                   </c></rc>
   </set>
  </array>
 </atominfo>
 <structure name="initialpos" >
  <crystal>
   <varray name="basis" >
    <v>       3.56408774      0.00000000      0.00000000</v>
    <v>       0.00000000      3.56408774      0.00000000</v>
    <v>       0.00000000      0.00000000      3.56408774</v>
   </varray>
   <i name="volume">     45.27361370</i>
   <varray name="rec_basis" >
    <v>       0.28057671      0.00000000      0.00000000</v>
    <v>       0.00000000      0.28057671      0.00000000</v>
    <v>       0.00000000      0.00000000      0.28057671</v>
   </varray>
  </crystal>
  <varray name="positions" >
   <v>       0.00000000      0.00000000      0.00000000</v>
   <v>       0.50000000      0.50000000      0.00000000</v>
   <v>       0.50000000      0.00000000      0.50000000</v>
   <v>       0.00000000      0.50000000      0.50000000</v>
  </varray>
 </structure>
 <calculation>
  <scstep>
   <time name="dav">   58.45   58.54</time>
   <time name="total">   59.13   59.22</time>
   <energy>
    <i name="alphaZ">    451.52129045</i>
    <i name="ewald">  -4482.79967884</i>
    <i name="hartreedc">  -1271.91561579</i>
    <i name="XCdc">    176.10109467</i>
    <i name="pawpsdc">   4328.20916945</i>
    <i name="pawaedc">  -4904.30802700</i>
    <i name="eentropy">     -0.00003567</i>
    <i name="bandstr">    473.80899455</i>
    <i name="atom">   5563.91759264</i>
    <i name="e_fr_energy">    334.53478444</i>
    <i name="e_wo_entrp">    334.53482012</i>
    <i name="e_0_energy">    334.53480228</i>
   </energy>
  </scstep>
  <scstep>
   <time name="dav">   56.77   57.05</time>
   <time name="total">   56.80   57.10</time>
   <energy>
    <i name="e_fr_energy">      7.31181987</i>
    <i name="e_wo_entrp">      7.31195713</i>
    <i name="e_0_energy">      7.31188850</i>
   </energy>
  </scstep>
  <scstep>
   <time name="dav">   60.83   61.14</time>
   <time name="total">   60.86   61.17</time>
   <energy>
    <i name="e_fr_energy">    -17.99152153</i>
    <i name="e_wo_entrp">    -17.99140151</i>
    <i name="e_0_energy">    -17.99146152</i>
   </energy>
  </scstep>
  <scstep>
   <time name="dav">   61.66   62.09</time>
   <time name="total">   61.69   62.13</time>
   <energy>
    <i name="e_fr_energy">    -18.33042788</i>
    <i name="e_wo_entrp">    -18.33028773</i>
    <i name="e_0_energy">    -18.33035781</i>
   </energy>
  </scstep>
  <scstep>
   <time name="dav">   61.76   62.20</time>
   <time name="total">   63.71   64.17</time>
   <energy>
    <i name="e_fr_energy">    -18.33106334</i>
    <i name="e_wo_entrp">    -18.33092315</i>
    <i name="e_0_energy">    -18.33099324</i>
   </energy>
  </scstep>
  <scstep>
   <time name="dav">   60.54   60.96</time>
   <time name="total">   63.14   63.58</time>
   <energy>
    <i name="e_fr_energy">    -15.94304865</i>
    <i name="e_wo_entrp">    -15.94293228</i>
    <i name="e_0_energy">    -15.94299046</i>
   </energy>
  </scstep>
  <scstep>
   <time name="dav">   62.37   62.69</time>
   <time name="total">   64.97   65.31</time>
   <energy>
    <i name="e_fr_energy">    -14.84734524</i>
    <i name="e_wo_entrp">    -14.84725731</i>
    <i name="e_0_energy">    -14.84730127</i>
   </energy>
  </scstep>
  <scstep>
   <time name="dav">   60.45   60.77</time>
   <time name="total">   63.05   63.38</time>
   <energy>
    <i name="e_fr_energy">    -14.79943616</i>
    <i name="e_wo_entrp">    -14.79935016</i>
    <i name="e_0_energy">    -14.79939316</i>
   </energy>
  </scstep>
  <scstep>
   <time name="dav">   65.79   66.11</time>
   <time name="total">   68.42   68.76</time>
   <energy>
    <i name="e_fr_energy">    -14.79215420</i>
    <i name="e_wo_entrp">    -14.79207701</i>
    <i name="e_0_energy">    -14.79211561</i>
   </energy>
  </scstep>
  <scstep>
   <time name="dav">   60.98   61.07</time>
   <time name="total">   63.61   63.71</time>
   <energy>
    <i name="e_fr_energy">    -14.79223355</i>
    <i name="e_wo_entrp">    -14.79215779</i>
    <i name="e_0_energy">    -14.79219567</i>
   </energy>
  </scstep>
  <scstep>
   <time name="dav">   62.18   62.28</time>
   <time name="total">   64.82   64.92</time>
   <energy>
    <i name="e_fr_energy">    -14.79223111</i>
    <i name="e_wo_entrp">    -14.79215484</i>
    <i name="e_0_energy">    -14.79219298</i>
   </energy>
  </scstep>
  <scstep>
   <time name="dav">   63.85   64.12</time>
   <time name="total">   66.47   66.76</time>
   <energy>
    <i name="e_fr_energy">    -14.79223576</i>
    <i name="e_wo_entrp">    -14.79215979</i>
    <i name="e_0_energy">    -14.79219778</i>
   </energy>
  </scstep>
  <scstep>
   <time name="dav">   61.60   61.69</time>
   <time name="total">   64.26   64.36</time>
   <energy>
    <i name="e_fr_energy">    -14.79223634</i>
    <i name="e_wo_entrp">    -14.79216033</i>
    <i name="e_0_energy">    -14.79219834</i>
   </energy>
  </scstep>
  <scstep>
   <time name="dav">   44.45   44.52</time>
   <time name="total">   47.05   47.13</time>
   <energy>
    <i name="e_fr_energy">    -14.79223645</i>
    <i name="e_wo_entrp">    -14.79216043</i>
    <i name="e_0_energy">    -14.79219844</i>
   </energy>
  </scstep>
  <scstep>
   <time name="dav">   42.10   42.16</time>
   <time name="total">   44.72   44.80</time>
   <energy>
    <i name="e_fr_energy">    -14.79223643</i>
    <i name="e_wo_entrp">    -14.79216041</i>
    <i name="e_0_energy">    -14.79219842</i>
   </energy>
  </scstep>
  <scstep>
   <time name="dav">   40.81   40.99</time>
   <time name="total">   41.50   41.69</time>
   <energy>
    <i name="alphaZ">    451.52129045</i>
    <i name="ewald">  -4482.79967884</i>
    <i name="hartreedc">  -1182.21663811</i>
    <i name="XCdc">    171.62967446</i>
    <i name="pawpsdc">   4421.27090336</i>
    <i name="pawaedc">  -5001.23739095</i>
    <i name="eentropy">     -0.00007602</i>
    <i name="bandstr">     43.12208658</i>
    <i name="atom">   5563.91759264</i>
    <i name="e_fr_energy">    -14.79223643</i>
    <i name="e_wo_entrp">    -14.79216041</i>
    <i name="e_0_energy">    -14.79219842</i>
   </energy>
  </scstep>
  <structure>
   <crystal>
    <varray name="basis" >
     <v>       3.56408774      0.00000000      0.00000000</v>
     <v>       0.00000000      3.56408774      0.00000000</v>
     <v>       0.00000000      0.00000000      3.56408774</v>
    </varray>
    <i name="volume">     45.27361370</i>
    <varray name="rec_basis" >
     <v>       0.28057671      0.00000000      0.00000000</v>
     <v>       0.00000000      0.28057671      0.00000000</v>
     <v>       0.00000000      0.00000000      0.28057671</v>
    </varray>
   </crystal>
   <varray name="positions" >
    <v>       0.00000000      0.00000000      0.00000000</v>
    <v>       0.50000000      0.50000000      0.00000000</v>
    <v>       0.50000000      0.00000000      0.50000000</v>
    <v>       0.00000000      0.50000000      0.50000000</v>
   </varray>
  </structure>
  <varray name="forces" >
   <v>       0.00000000      0.00000000     -0.00000000</v>
   <v>       0.00000000     -0.00000000     -0.00000000</v>
   <v>      -0.00000000      0.00000000      0.00000000</v>
   <v>      -0.00000000      0.00000000     -0.00000000</v>
  </varray>
  <varray name="stress" >
   <v>      96.78118336      0.00000000     -0.00000000</v>
   <v>       0.00000000     96.78118336      0.00000000</v>
   <v>      -0.00000000      0.00000000     96.78118336</v>
  </varray>
  <energy>
   <i name="e_fr_energy">    -14.79223643</i>
   <i name="e_wo_entrp">    -14.79219842</i>
   <i name="e_0_energy">     -0.00007602</i>
  </energy>
  <eigenvalues>
   <array>
    <dimension dim="1">band</dimension>
    <dimension dim="2">kpoint</dimension>
    <dimension dim="3">spin</dimension>
    <field>eigene</field>
    <field>occ</field>
    <set>
     <set comment="spin 1">
      <set comment="kpoint 1">
       <r>  -5.5117  1.0000</r>
       <r>  -0.9882  1.0000</r>
       <r>  -0.9882  1.0000</r>
       <r>  -0.9882  1.0000</r>
       <r>  -0.5079  1.0000</r>
       <r>  -0.5079  1.0000</r>
       <r>  -0.5079  1.0000</r>
       <r>   0.9785  1.0000</r>
       <r>   0.9785  1.0000</r>
       <r>   0.9785  1.0000</r>
       <r>   1.8630  1.0000</r>
       <r>   1.8630  1.0000</r>
       <r>   2.4499  1.0000</r>
       <r>   2.4499  1.0000</r>
       <r>   2.4499  1.0000</r>
       <r>   2.6146  1.0000</r>
       <r>   2.6146  1.0000</r>
       <r>   2.6146  1.0000</r>
       <r>   2.6146  1.0000</r>
       <r>   2.6146  1.0000</r>
       <r>   2.6146  1.0000</r>
       <r>   5.6477  0.0000</r>
       <r>   5.6477  0.0000</r>
       <r>   5.6477  0.0000</r>
       <r>  11.5883  0.0000</r>
       <r>  11.5883  0.0000</r>
       <r>  11.5883  0.0000</r>
       <r>  17.6839  0.0000</r>
       <r>  17.6839  0.0000</r>
       <r>  17.6839  0.0000</r>
       <r>  17.6839  0.0000</r>
       <r>  17.6839  0.0000</r>
      </set>
      <set comment="kpoint 2">
       <r>  -5.4899  1.0000</r>
       <r>  -0.9879  1.0000</r>
       <r>  -0.9778  1.0000</r>
       <r>  -0.9778  1.0000</r>
       <r>  -0.5019  1.0000</r>
       <r>  -0.5016  1.0000</r>
       <r>  -0.5016  1.0000</r>
       <r>   0.9718  1.0000</r>
       <r>   0.9839  1.0000</r>
       <r>   0.9839  1.0000</r>
       <r>   1.8569  1.0000</r>
       <r>   1.8655  1.0000</r>
       <r>   2.4420  1.0000</r>
       <r>   2.4420  1.0000</r>
       <r>   2.4473  1.0000</r>
       <r>   2.5720  1.0000</r>
       <r>   2.5720  1.0000</r>
       <r>   2.6053  1.0000</r>
       <r>   2.6053  1.0000</r>
       <r>   2.6147  1.0000</r>
       <r>   2.6147  1.0000</r>
       <r>   5.5062  0.0000</r>
       <r>   5.7097  0.0000</r>
       <r>   5.7097  0.0000</r>
       <r>  11.5958  0.0000</r>
       <r>  11.5958  0.0000</r>
       <r>  11.7722  0.0000</r>
       <r>  17.5217  0.0000</r>
       <r>  17.5217  0.0000</r>
       <r>  17.5873  0.0000</r>
       <r>  17.5873  0.0000</r>
       <r>  17.7162  0.0000</r>
      </set>
      <set comment="kpoint 3">
       <r>  -5.4246  1.0000</r>
       <r>  -0.9878  1.0000</r>
       <r>  -0.9467  1.0000</r>
       <r>  -0.9467  1.0000</r>
       <r>  -0.4840  1.0000</r>
       <r>  -0.4825  1.0000</r>
       <r>  -0.4825  1.0000</r>
       <r>   0.9518  1.0000</r>
       <r>   0.9999  1.0000</r>
       <r>   0.9999  1.0000</r>
       <r>   1.8387  1.0000</r>
       <r>   1.8728  1.0000</r>
       <r>   2.4184  1.0000</r>
       <r>   2.4184  1.0000</r>
       <r>   2.4396  1.0000</r>
       <r>   2.4534  1.0000</r>
       <r>   2.4534  1.0000</r>
       <r>   2.5775  1.0000</r>
       <r>   2.5775  1.0000</r>
       <r>   2.6147  1.0000</r>
       <r>   2.6147  1.0000</r>
       <r>   5.1281  0.0000</r>
       <r>   5.8859  0.0000</r>
       <r>   5.8859  0.0000</r>
       <r>  11.6186  0.0000</r>
       <r>  11.6186  0.0000</r>
       <r>  12.2781  0.0000</r>
       <r>  17.0968  0.0000</r>
       <r>  17.0968  0.0000</r>
       <r>  17.3191  0.0000</r>
       <r>  17.3191  0.0000</r>
       <r>  17.8128  0.0000</r>
      </set>
      <set comment="kpoint 4">
       <r>  -5.3161  1.0000</r>
       <r>  -0.9910  1.0000</r>
       <r>  -0.8961  1.0000</r>
       <r>  -0.8961  1.0000</r>
       <r>  -0.4544  1.0000</r>
       <r>  -0.4507  1.0000</r>
       <r>  -0.4507  1.0000</r>
       <r>   0.9187  1.0000</r>
       <r>   1.0265  1.0000</r>
       <r>   1.0265  1.0000</r>
       <r>   1.8089  1.0000</r>
       <r>   1.8849  1.0000</r>
       <r>   2.2806  1.0000</r>
       <r>   2.2806  1.0000</r>
       <r>   2.3797  1.0000</r>
       <r>   2.3797  1.0000</r>
       <r>   2.4270  1.0000</r>
       <r>   2.5324  1.0000</r>
       <r>   2.5324  1.0000</r>
       <r>   2.6148  1.0000</r>
       <r>   2.6148  1.0000</r>
       <r>   4.6067  0.0000</r>
       <r>   6.1548  0.0000</r>
       <r>   6.1548  0.0000</r>
       <r>  11.6570  0.0000</r>
       <r>  11.6570  0.0000</r>
       <r>  13.0150  0.0000</r>
       <r>  16.5195  0.0000</r>
       <r>  16.5195  0.0000</r>
       <r>  16.9290  0.0000</r>
       <r>  16.9290  0.0000</r>
       <r>  17.9725  0.0000</r>
      </set>
      <set comment="kpoint 5">
       <r>  -5.1651  1.0000</r>
       <r>  -1.0031  1.0000</r>
       <r>  -0.8279  1.0000</r>
       <r>  -0.8279  1.0000</r>
       <r>  -0.4136  1.0000</r>
       <r>  -0.4060  1.0000</r>
       <r>  -0.4060  1.0000</r>
       <r>   0.8735  1.0000</r>
       <r>   1.0634  1.0000</r>
       <r>   1.0634  1.0000</r>
       <r>   1.7685  1.0000</r>
       <r>   1.9015  1.0000</r>
       <r>   2.0754  1.0000</r>
       <r>   2.0754  1.0000</r>
       <r>   2.3269  1.0000</r>
       <r>   2.3269  1.0000</r>
       <r>   2.4097  1.0000</r>
       <r>   2.4714  1.0000</r>
       <r>   2.4714  1.0000</r>
       <r>   2.6148  1.0000</r>
       <r>   2.6148  1.0000</r>
       <r>   4.0233  1.0000</r>
       <r>   6.4944  0.0000</r>
       <r>   6.4944  0.0000</r>
       <r>  11.7120  0.0000</r>
       <r>  11.7120  0.0000</r>
       <r>  13.9062  0.0000</r>
       <r>  15.8680  0.0000</r>
       <r>  15.8680  0.0000</r>
       <r>  16.4690  0.0000</r>
       <r>  16.4690  0.0000</r>
       <r>  18.1935  0.0000</r>
      </set>
      <set comment="kpoint 6">
       <r>  -4.9726  1.0000</r>
       <r>  -1.0330  1.0000</r>
       <r>  -0.7447  1.0000</r>
       <r>  -0.7447  1.0000</r>
       <r>  -0.3621  1.0000</r>
       <r>  -0.3483  1.0000</r>
       <r>  -0.3483  1.0000</r>
       <r>   0.8168  1.0000</r>
       <r>   1.1106  1.0000</r>
       <r>   1.1106  1.0000</r>
       <r>   1.7187  1.0000</r>
       <r>   1.8544  1.0000</r>
       <r>   1.8544  1.0000</r>
       <r>   1.9224  1.0000</r>
       <r>   2.2617  1.0000</r>
       <r>   2.2617  1.0000</r>
       <r>   2.3880  1.0000</r>
       <r>   2.3966  1.0000</r>
       <r>   2.3966  1.0000</r>
       <r>   2.6149  1.0000</r>
       <r>   2.6149  1.0000</r>
       <r>   3.4338  1.0000</r>
       <r>   6.8878  0.0000</r>
       <r>   6.8878  0.0000</r>
       <r>  11.7849  0.0000</r>
       <r>  11.7849  0.0000</r>
       <r>  14.9024  0.0000</r>
       <r>  15.1847  0.0000</r>
       <r>  15.1847  0.0000</r>
       <r>  15.9794  0.0000</r>
       <r>  15.9794  0.0000</r>
       <r>  18.4737  0.0000</r>
      </set>
      <set comment="kpoint 7">
       <r>  -4.7399  1.0000</r>
       <r>  -1.0933  1.0000</r>
       <r>  -0.6503  1.0000</r>
       <r>  -0.6503  1.0000</r>
       <r>  -0.3007  1.0000</r>
       <r>  -0.2773  1.0000</r>
       <r>  -0.2773  1.0000</r>
       <r>   0.7499  1.0000</r>
       <r>   1.1676  1.0000</r>
       <r>   1.1676  1.0000</r>
       <r>   1.6286  1.0000</r>
       <r>   1.6286  1.0000</r>
       <r>   1.6615  1.0000</r>
       <r>   1.9473  1.0000</r>
       <r>   2.1864  1.0000</r>
       <r>   2.1864  1.0000</r>
       <r>   2.3101  1.0000</r>
       <r>   2.3101  1.0000</r>
       <r>   2.3623  1.0000</r>
       <r>   2.6151  1.0000</r>
       <r>   2.6151  1.0000</r>
       <r>   2.8785  1.0000</r>
       <r>   7.3237  0.0000</r>
       <r>   7.3237  0.0000</r>
       <r>  11.8768  0.0000</r>
       <r>  11.8768  0.0000</r>
       <r>  14.4918  0.0000</r>
       <r>  14.4918  0.0000</r>
       <r>  15.4884  0.0000</r>
       <r>  15.4884  0.0000</r>
       <r>  15.9738  0.0000</r>
       <r>  18.8102  0.0000</r>
      </set>
      <set comment="kpoint 8">
       <r>  -4.4689  1.0000</r>
       <r>  -1.2006  1.0000</r>
       <r>  -0.5495  1.0000</r>
       <r>  -0.5495  1.0000</r>
       <r>  -0.2304  1.0000</r>
       <r>  -0.1928  1.0000</r>
       <r>  -0.1928  1.0000</r>
       <r>   0.6740  1.0000</r>
       <r>   1.2340  1.0000</r>
       <r>   1.2340  1.0000</r>
       <r>   1.4053  1.0000</r>
       <r>   1.4053  1.0000</r>
       <r>   1.5992  1.0000</r>
       <r>   1.9758  1.0000</r>
       <r>   2.1047  1.0000</r>
       <r>   2.1047  1.0000</r>
       <r>   2.2145  1.0000</r>
       <r>   2.2145  1.0000</r>
       <r>   2.3330  1.0000</r>
       <r>   2.3893  1.0000</r>
       <r>   2.6152  1.0000</r>
       <r>   2.6152  1.0000</r>
       <r>   7.7947  0.0000</r>
       <r>   7.7947  0.0000</r>
       <r>  11.9893  0.0000</r>
       <r>  11.9893  0.0000</r>
       <r>  13.8012  0.0000</r>
       <r>  13.8012  0.0000</r>
       <r>  15.0146  0.0000</r>
       <r>  15.0146  0.0000</r>
       <r>  17.1011  0.0000</r>
       <r>  19.2002  0.0000</r>
      </set>
      <set comment="kpoint 9">
       <r>  -4.1622  1.0000</r>
       <r>  -1.3715  1.0000</r>
       <r>  -0.4486  1.0000</r>
       <r>  -0.4486  1.0000</r>
       <r>  -0.1522  1.0000</r>
       <r>  -0.0947  1.0000</r>
       <r>  -0.0947  1.0000</r>
       <r>   0.5906  1.0000</r>
       <r>   1.1890  1.0000</r>
       <r>   1.1890  1.0000</r>
       <r>   1.3093  1.0000</r>
       <r>   1.3093  1.0000</r>
       <r>   1.5353  1.0000</r>
       <r>   1.9919  1.0000</r>
       <r>   2.0073  1.0000</r>
       <r>   2.0215  1.0000</r>
       <r>   2.0215  1.0000</r>
       <r>   2.1123  1.0000</r>
       <r>   2.1123  1.0000</r>
       <r>   2.3007  1.0000</r>
       <r>   2.6153  1.0000</r>
       <r>   2.6153  1.0000</r>
       <r>   8.2957  0.0000</r>
       <r>   8.2957  0.0000</r>
       <r>  12.1232  0.0000</r>
       <r>  12.1232  0.0000</r>
       <r>  13.1197  0.0000</r>
       <r>  13.1197  0.0000</r>
       <r>  14.5708  0.0000</r>
       <r>  14.5708  0.0000</r>
       <r>  18.2705  0.0000</r>
       <r>  19.6406  0.0000</r>
      </set>
      <set comment="kpoint 10">
       <r>  -3.8233  1.0000</r>
       <r>  -1.6155  1.0000</r>
       <r>  -0.3554  1.0000</r>
       <r>  -0.3554  1.0000</r>
       <r>  -0.0673  1.0000</r>
       <r>   0.0173  1.0000</r>
       <r>   0.0173  1.0000</r>
       <r>   0.5012  1.0000</r>
       <r>   0.9826  1.0000</r>
       <r>   0.9826  1.0000</r>
       <r>   1.3929  1.0000</r>
       <r>   1.3929  1.0000</r>
       <r>   1.4739  1.0000</r>
       <r>   1.7008  1.0000</r>
       <r>   1.9433  1.0000</r>
       <r>   1.9433  1.0000</r>
       <r>   2.0059  1.0000</r>
       <r>   2.0059  1.0000</r>
       <r>   2.0413  1.0000</r>
       <r>   2.2659  1.0000</r>
       <r>   2.6153  1.0000</r>
       <r>   2.6153  1.0000</r>
       <r>   8.8236  0.0000</r>
       <r>   8.8236  0.0000</r>
       <r>  12.2782  0.0000</r>
       <r>  12.2782  0.0000</r>
       <r>  12.4513  0.0000</r>
       <r>  12.4513  0.0000</r>
       <r>  14.1667  0.0000</r>
       <r>  14.1667  0.0000</r>
       <r>  19.4697  0.0000</r>
       <r>  20.1284  0.0000</r>
      </set>
      <set comment="kpoint 11">
       <r>  -3.4574  1.0000</r>
       <r>  -1.9276  1.0000</r>
       <r>  -0.2787  1.0000</r>
       <r>  -0.2787  1.0000</r>
       <r>   0.0230  1.0000</r>
       <r>   0.1434  1.0000</r>
       <r>   0.1434  1.0000</r>
       <r>   0.4075  1.0000</r>
       <r>   0.7879  1.0000</r>
       <r>   0.7879  1.0000</r>
       <r>   1.4212  1.0000</r>
       <r>   1.4837  1.0000</r>
       <r>   1.4837  1.0000</r>
       <r>   1.5136  1.0000</r>
       <r>   1.8781  1.0000</r>
       <r>   1.8781  1.0000</r>
       <r>   1.8976  1.0000</r>
       <r>   1.8976  1.0000</r>
       <r>   2.0774  1.0000</r>
       <r>   2.2293  1.0000</r>
       <r>   2.6154  1.0000</r>
       <r>   2.6154  1.0000</r>
       <r>   9.3758  0.0000</r>
       <r>   9.3758  0.0000</r>
       <r>  11.7986  0.0000</r>
       <r>  11.7986  0.0000</r>
       <r>  12.4492  0.0000</r>
       <r>  12.4492  0.0000</r>
       <r>  13.8137  0.0000</r>
       <r>  13.8137  0.0000</r>
       <r>  20.6605  0.0000</r>
       <r>  20.6775  0.0000</r>
      </set>
      <set comment="kpoint 12">
       <r>  -3.0719  1.0000</r>
       <r>  -2.2892  1.0000</r>
       <r>  -0.2278  1.0000</r>
       <r>  -0.2278  1.0000</r>
       <r>   0.1173  1.0000</r>
       <r>   0.2836  1.0000</r>
       <r>   0.2836  1.0000</r>
       <r>   0.3111  1.0000</r>
       <r>   0.6061  1.0000</r>
       <r>   0.6061  1.0000</r>
       <r>   1.3852  1.0000</r>
       <r>   1.4133  1.0000</r>
       <r>   1.5810  1.0000</r>
       <r>   1.5810  1.0000</r>
       <r>   1.7895  1.0000</r>
       <r>   1.7895  1.0000</r>
       <r>   1.8344  1.0000</r>
       <r>   1.8344  1.0000</r>
       <r>   2.1149  1.0000</r>
       <r>   2.1915  1.0000</r>
       <r>   2.6154  1.0000</r>
       <r>   2.6154  1.0000</r>
       <r>   9.9508  0.0000</r>
       <r>   9.9508  0.0000</r>
       <r>  11.1634  0.0000</r>
       <r>  11.1634  0.0000</r>
       <r>  12.6144  0.0000</r>
       <r>  12.6144  0.0000</r>
       <r>  13.5377  0.0000</r>
       <r>  13.5377  0.0000</r>
       <r>  21.2339  0.0000</r>
       <r>  21.2339  0.0000</r>
      </set>
      <set comment="kpoint 13">
       <r>  -2.6774  1.0000</r>
       <r>  -2.6774  1.0000</r>
       <r>  -0.2098  1.0000</r>
       <r>  -0.2098  1.0000</r>
       <r>   0.2138  1.0000</r>
       <r>   0.2138  1.0000</r>
       <r>   0.4379  1.0000</r>
       <r>   0.4379  1.0000</r>
       <r>   0.4379  1.0000</r>
       <r>   0.4379  1.0000</r>
       <r>   1.3773  1.0000</r>
       <r>   1.3773  1.0000</r>
       <r>   1.6834  1.0000</r>
       <r>   1.6834  1.0000</r>
       <r>   1.6834  1.0000</r>
       <r>   1.6834  1.0000</r>
       <r>   1.8189  1.0000</r>
       <r>   1.8189  1.0000</r>
       <r>   2.1531  1.0000</r>
       <r>   2.1531  1.0000</r>
       <r>   2.6155  1.0000</r>
       <r>   2.6155  1.0000</r>
       <r>  10.5470  0.0000</r>
       <r>  10.5470  0.0000</r>
       <r>  10.5470  0.0000</r>
       <r>  10.5470  0.0000</r>
       <r>  12.6975  0.0000</r>
       <r>  12.6975  0.0000</r>
       <r>  13.4175  0.0000</r>
       <r>  13.4175  0.0000</r>
       <r>  21.8460  0.0000</r>
       <r>  21.8460  0.0000</r>
      </set>
      <set comment="kpoint 14">
       <r>  -5.4681  1.0000</r>
       <r>  -0.9774  1.0000</r>
       <r>  -0.9774  1.0000</r>
       <r>  -0.9674  1.0000</r>
       <r>  -0.4956  1.0000</r>
       <r>  -0.4956  1.0000</r>
       <r>  -0.4953  1.0000</r>
       <r>   0.9679  1.0000</r>
       <r>   0.9865  1.0000</r>
       <r>   0.9891  1.0000</r>
       <r>   1.8551  1.0000</r>
       <r>   1.8637  1.0000</r>
       <r>   2.4341  1.0000</r>
       <r>   2.4385  1.0000</r>
       <r>   2.4385  1.0000</r>
       <r>   2.5368  1.0000</r>
       <r>   2.5629  1.0000</r>
       <r>   2.5629  1.0000</r>
       <r>   2.6053  1.0000</r>
       <r>   2.6053  1.0000</r>
       <r>   2.6087  1.0000</r>
       <r>   5.5679  0.0000</r>
       <r>   5.5679  0.0000</r>
       <r>   5.7701  0.0000</r>
       <r>  11.6034  0.0000</r>
       <r>  11.7806  0.0000</r>
       <r>  11.7806  0.0000</r>
       <r>  17.1454  0.0000</r>
       <r>  17.5533  0.0000</r>
       <r>  17.5533  0.0000</r>
       <r>  17.6192  0.0000</r>
       <r>  17.6192  0.0000</r>
      </set>
      <set comment="kpoint 15">
       <r>  -5.4028  1.0000</r>
       <r>  -0.9771  1.0000</r>
       <r>  -0.9461  1.0000</r>
       <r>  -0.9365  1.0000</r>
       <r>  -0.4777  1.0000</r>
       <r>  -0.4766  1.0000</r>
       <r>  -0.4764  1.0000</r>
       <r>   0.9494  1.0000</r>
       <r>   1.0010  1.0000</r>
       <r>   1.0047  1.0000</r>
       <r>   1.8387  1.0000</r>
       <r>   1.8696  1.0000</r>
       <r>   2.4045  1.0000</r>
       <r>   2.4108  1.0000</r>
       <r>   2.4254  1.0000</r>
       <r>   2.4276  1.0000</r>
       <r>   2.4534  1.0000</r>
       <r>   2.5364  1.0000</r>
       <r>   2.5775  1.0000</r>
       <r>   2.6053  1.0000</r>
       <r>   2.6054  1.0000</r>
       <r>   5.1899  0.0000</r>
       <r>   5.7429  0.0000</r>
       <r>   5.9425  0.0000</r>
       <r>  11.6260  0.0000</r>
       <r>  11.8059  0.0000</r>
       <r>  12.2884  0.0000</r>
       <r>  16.5979  0.0000</r>
       <r>  17.1270  0.0000</r>
       <r>  17.3498  0.0000</r>
       <r>  17.6476  0.0000</r>
       <r>  17.6862  0.0000</r>
      </set>
      <set comment="kpoint 16">
       <r>  -5.2945  1.0000</r>
       <r>  -0.9800  1.0000</r>
       <r>  -0.8952  1.0000</r>
       <r>  -0.8862  1.0000</r>
       <r>  -0.4483  1.0000</r>
       <r>  -0.4450  1.0000</r>
       <r>  -0.4449  1.0000</r>
       <r>   0.9170  1.0000</r>
       <r>   1.0272  1.0000</r>
       <r>   1.0306  1.0000</r>
       <r>   1.8095  1.0000</r>
       <r>   1.8818  1.0000</r>
       <r>   2.2582  1.0000</r>
       <r>   2.2603  1.0000</r>
       <r>   2.3726  1.0000</r>
       <r>   2.3849  1.0000</r>
       <r>   2.4068  1.0000</r>
       <r>   2.4955  1.0000</r>
       <r>   2.5324  1.0000</r>
       <r>   2.6046  1.0000</r>
       <r>   2.6053  1.0000</r>
       <r>   4.6707  0.0000</r>
       <r>   6.0086  0.0000</r>
       <r>   6.2068  0.0000</r>
       <r>  11.6643  0.0000</r>
       <r>  11.8489  0.0000</r>
       <r>  13.0272  0.0000</r>
       <r>  15.9744  0.0000</r>
       <r>  16.5484  0.0000</r>
       <r>  16.9582  0.0000</r>
       <r>  17.4131  0.0000</r>
       <r>  17.8036  0.0000</r>
      </set>
      <set comment="kpoint 17">
       <r>  -5.1437  1.0000</r>
       <r>  -0.9917  1.0000</r>
       <r>  -0.8266  1.0000</r>
       <r>  -0.8183  1.0000</r>
       <r>  -0.4077  1.0000</r>
       <r>  -0.4006  1.0000</r>
       <r>  -0.4005  1.0000</r>
       <r>   0.8721  1.0000</r>
       <r>   1.0640  1.0000</r>
       <r>   1.0665  1.0000</r>
       <r>   1.7697  1.0000</r>
       <r>   1.8989  1.0000</r>
       <r>   2.0566  1.0000</r>
       <r>   2.0578  1.0000</r>
       <r>   2.3203  1.0000</r>
       <r>   2.3300  1.0000</r>
       <r>   2.3681  1.0000</r>
       <r>   2.4488  1.0000</r>
       <r>   2.4713  1.0000</r>
       <r>   2.6044  1.0000</r>
       <r>   2.6054  1.0000</r>
       <r>   4.0929  1.0000</r>
       <r>   6.3424  0.0000</r>
       <r>   6.5419  0.0000</r>
       <r>  11.7190  0.0000</r>
       <r>  11.9104  0.0000</r>
       <r>  13.9198  0.0000</r>
       <r>  15.3173  0.0000</r>
       <r>  15.8959  0.0000</r>
       <r>  16.4966  0.0000</r>
       <r>  17.0035  0.0000</r>
       <r>  18.0192  0.0000</r>
      </set>
      <set comment="kpoint 18">
       <r>  -4.9514  1.0000</r>
       <r>  -1.0209  1.0000</r>
       <r>  -0.7428  1.0000</r>
       <r>  -0.7356  1.0000</r>
       <r>  -0.3565  1.0000</r>
       <r>  -0.3434  1.0000</r>
       <r>  -0.3431  1.0000</r>
       <r>   0.8159  1.0000</r>
       <r>   1.1110  1.0000</r>
       <r>   1.1122  1.0000</r>
       <r>   1.7208  1.0000</r>
       <r>   1.8361  1.0000</r>
       <r>   1.8409  1.0000</r>
       <r>   1.9205  1.0000</r>
       <r>   2.2557  1.0000</r>
       <r>   2.2643  1.0000</r>
       <r>   2.2991  1.0000</r>
       <r>   2.3965  1.0000</r>
       <r>   2.4081  1.0000</r>
       <r>   2.6044  1.0000</r>
       <r>   2.6054  1.0000</r>
       <r>   3.5156  1.0000</r>
       <r>   6.7272  0.0000</r>
       <r>   6.9314  0.0000</r>
       <r>  11.7910  0.0000</r>
       <r>  11.9918  0.0000</r>
       <r>  14.6508  0.0000</r>
       <r>  14.9168  0.0000</r>
       <r>  15.2121  0.0000</r>
       <r>  16.0056  0.0000</r>
       <r>  16.5236  0.0000</r>
       <r>  18.2920  0.0000</r>
      </set>
      <set comment="kpoint 19">
       <r>  -4.7190  1.0000</r>
       <r>  -1.0806  1.0000</r>
       <r>  -0.6478  1.0000</r>
       <r>  -0.6416  1.0000</r>
       <r>  -0.2954  1.0000</r>
       <r>  -0.2733  1.0000</r>
       <r>  -0.2724  1.0000</r>
       <r>   0.7494  1.0000</r>
       <r>   1.1669  1.0000</r>
       <r>   1.1679  1.0000</r>
       <r>   1.6110  1.0000</r>
       <r>   1.6185  1.0000</r>
       <r>   1.6650  1.0000</r>
       <r>   1.9462  1.0000</r>
       <r>   2.1812  1.0000</r>
       <r>   2.1889  1.0000</r>
       <r>   2.1961  1.0000</r>
       <r>   2.3100  1.0000</r>
       <r>   2.3717  1.0000</r>
       <r>   2.6044  1.0000</r>
       <r>   2.6055  1.0000</r>
       <r>   2.9867  1.0000</r>
       <r>   7.1517  0.0000</r>
       <r>   7.3640  0.0000</r>
       <r>  11.8806  0.0000</r>
       <r>  12.0946  0.0000</r>
       <r>  13.9890  0.0000</r>
       <r>  14.5190  0.0000</r>
       <r>  15.5133  0.0000</r>
       <r>  15.9884  0.0000</r>
       <r>  16.0185  0.0000</r>
       <r>  18.6190  0.0000</r>
      </set>
      <set comment="kpoint 20">
       <r>  -4.4483  1.0000</r>
       <r>  -1.1871  1.0000</r>
       <r>  -0.5462  1.0000</r>
       <r>  -0.5412  1.0000</r>
       <r>  -0.2255  1.0000</r>
       <r>  -0.1900  1.0000</r>
       <r>  -0.1884  1.0000</r>
       <r>   0.6740  1.0000</r>
       <r>   1.2296  1.0000</r>
       <r>   1.2343  1.0000</r>
       <r>   1.3887  1.0000</r>
       <r>   1.3980  1.0000</r>
       <r>   1.6055  1.0000</r>
       <r>   1.9756  1.0000</r>
       <r>   2.0487  1.0000</r>
       <r>   2.1003  1.0000</r>
       <r>   2.1072  1.0000</r>
       <r>   2.2144  1.0000</r>
       <r>   2.3297  1.0000</r>
       <r>   2.5616  1.0000</r>
       <r>   2.6046  1.0000</r>
       <r>   2.6055  1.0000</r>
       <r>   7.6081  0.0000</r>
       <r>   7.8323  0.0000</r>
       <r>  11.9861  0.0000</r>
       <r>  12.2204  0.0000</r>
       <r>  13.3423  0.0000</r>
       <r>  13.8284  0.0000</r>
       <r>  15.0385  0.0000</r>
       <r>  15.5164  0.0000</r>
       <r>  17.1148  0.0000</r>
       <r>  18.9968  0.0000</r>
      </set>
      <set comment="kpoint 21">
       <r>  -4.1420  1.0000</r>
       <r>  -1.3572  1.0000</r>
       <r>  -0.4445  1.0000</r>
       <r>  -0.4404  1.0000</r>
       <r>  -0.1476  1.0000</r>
       <r>  -0.0935  1.0000</r>
       <r>  -0.0907  1.0000</r>
       <r>   0.5910  1.0000</r>
       <r>   1.1735  1.0000</r>
       <r>   1.1840  1.0000</r>
       <r>   1.2971  1.0000</r>
       <r>   1.3095  1.0000</r>
       <r>   1.5483  1.0000</r>
       <r>   1.8398  1.0000</r>
       <r>   2.0082  1.0000</r>
       <r>   2.0179  1.0000</r>
       <r>   2.0239  1.0000</r>
       <r>   2.1122  1.0000</r>
       <r>   2.2274  1.0000</r>
       <r>   2.3404  1.0000</r>
       <r>   2.6047  1.0000</r>
       <r>   2.6055  1.0000</r>
       <r>   8.0915  0.0000</r>
       <r>   8.3311  0.0000</r>
       <r>  12.0893  0.0000</r>
       <r>  12.3702  0.0000</r>
       <r>  12.7338  0.0000</r>
       <r>  13.1470  0.0000</r>
       <r>  14.5942  0.0000</r>
       <r>  15.0357  0.0000</r>
       <r>  18.2799  0.0000</r>
       <r>  19.4218  0.0000</r>
      </set>
      <set comment="kpoint 22">
       <r>  -3.8036  1.0000</r>
       <r>  -1.6004  1.0000</r>
       <r>  -0.3502  1.0000</r>
       <r>  -0.3470  1.0000</r>
       <r>  -0.0631  1.0000</r>
       <r>   0.0163  1.0000</r>
       <r>   0.0207  1.0000</r>
       <r>   0.5022  1.0000</r>
       <r>   0.9685  1.0000</r>
       <r>   0.9795  1.0000</r>
       <r>   1.3569  1.0000</r>
       <r>   1.3930  1.0000</r>
       <r>   1.5095  1.0000</r>
       <r>   1.6223  1.0000</r>
       <r>   1.9405  1.0000</r>
       <r>   1.9454  1.0000</r>
       <r>   2.0058  1.0000</r>
       <r>   2.0435  1.0000</r>
       <r>   2.0696  1.0000</r>
       <r>   2.2832  1.0000</r>
       <r>   2.6049  1.0000</r>
       <r>   2.6055  1.0000</r>
       <r>   8.5981  0.0000</r>
       <r>   8.8571  0.0000</r>
       <r>  11.9432  0.0000</r>
       <r>  12.4130  0.0000</r>
       <r>  12.4790  0.0000</r>
       <r>  12.5428  0.0000</r>
       <r>  14.1912  0.0000</r>
       <r>  14.5887  0.0000</r>
       <r>  19.4565  0.0000</r>
       <r>  19.8902  0.0000</r>
      </set>
      <set comment="kpoint 23">
       <r>  -3.4384  1.0000</r>
       <r>  -1.9116  1.0000</r>
       <r>  -0.2724  1.0000</r>
       <r>  -0.2701  1.0000</r>
       <r>   0.0267  1.0000</r>
       <r>   0.1398  1.0000</r>
       <r>   0.1461  1.0000</r>
       <r>   0.4090  1.0000</r>
       <r>   0.7754  1.0000</r>
       <r>   0.7863  1.0000</r>
       <r>   1.3706  1.0000</r>
       <r>   1.4639  1.0000</r>
       <r>   1.4838  1.0000</r>
[...]
       <r>   0.7807  1.0000</r>
       <r>   0.8714  1.0000</r>
       <r>   0.9663  1.0000</r>
       <r>   1.0174  1.0000</r>
       <r>   1.0604  1.0000</r>
       <r>   1.0922  1.0000</r>
       <r>   1.0922  1.0000</r>
       <r>   1.5206  1.0000</r>
       <r>   1.5370  1.0000</r>
       <r>   1.5370  1.0000</r>
       <r>   1.6234  1.0000</r>
       <r>   2.3990  1.0000</r>
       <r>   2.4513  1.0000</r>
       <r>   2.4513  1.0000</r>
       <r>   2.4620  1.0000</r>
       <r>   2.5536  1.0000</r>
       <r>   3.2973  1.0000</r>
       <r>   4.3490  0.0000</r>
       <r>   4.3490  0.0000</r>
       <r>   8.3068  0.0000</r>
       <r>   8.3068  0.0000</r>
       <r>   9.4563  0.0000</r>
       <r>  10.2974  0.0000</r>
       <r>  22.8124  0.0000</r>
       <r>  22.8124  0.0000</r>
       <r>  23.8968  0.0000</r>
       <r>  23.8968  0.0000</r>
      </set>
      <set comment="kpoint 439">
       <r>  -1.2498  1.0000</r>
       <r>  -1.2498  1.0000</r>
       <r>  -0.9406  1.0000</r>
       <r>  -0.9406  1.0000</r>
       <r>   0.7867  1.0000</r>
       <r>   0.7867  1.0000</r>
       <r>   0.9245  1.0000</r>
       <r>   0.9245  1.0000</r>
       <r>   1.0334  1.0000</r>
       <r>   1.0334  1.0000</r>
       <r>   1.0853  1.0000</r>
       <r>   1.0853  1.0000</r>
       <r>   1.5664  1.0000</r>
       <r>   1.5664  1.0000</r>
       <r>   1.5922  1.0000</r>
       <r>   1.5922  1.0000</r>
       <r>   2.4363  1.0000</r>
       <r>   2.4363  1.0000</r>
       <r>   2.4447  1.0000</r>
       <r>   2.4447  1.0000</r>
       <r>   2.8842  1.0000</r>
       <r>   2.8842  1.0000</r>
       <r>   4.3613  0.0000</r>
       <r>   4.3613  0.0000</r>
       <r>   8.2392  0.0000</r>
       <r>   8.2392  0.0000</r>
       <r>   9.8532  0.0000</r>
       <r>   9.8532  0.0000</r>
       <r>  22.9713  0.0000</r>
       <r>  22.9713  0.0000</r>
       <r>  23.7306  0.0000</r>
       <r>  23.7306  0.0000</r>
      </set>
      <set comment="kpoint 440">
       <r>  -1.3976  1.0000</r>
       <r>  -1.0235  1.0000</r>
       <r>  -1.0235  1.0000</r>
       <r>  -0.9613  1.0000</r>
       <r>   0.7980  1.0000</r>
       <r>   0.8273  1.0000</r>
       <r>   0.8273  1.0000</r>
       <r>   0.9890  1.0000</r>
       <r>   0.9946  1.0000</r>
       <r>   1.0678  1.0000</r>
       <r>   1.0678  1.0000</r>
       <r>   1.0771  1.0000</r>
       <r>   1.5746  1.0000</r>
       <r>   1.5746  1.0000</r>
       <r>   1.5836  1.0000</r>
       <r>   1.7709  1.0000</r>
       <r>   2.3333  1.0000</r>
       <r>   2.4483  1.0000</r>
       <r>   2.4605  1.0000</r>
       <r>   2.4671  1.0000</r>
       <r>   2.4671  1.0000</r>
       <r>   3.8428  1.0000</r>
       <r>   3.8428  1.0000</r>
       <r>   4.2501  0.0000</r>
       <r>   8.2932  0.0000</r>
       <r>   8.7296  0.0000</r>
       <r>   8.7296  0.0000</r>
       <r>  10.2706  0.0000</r>
       <r>  22.8487  0.0000</r>
       <r>  23.6188  0.0000</r>
       <r>  23.6188  0.0000</r>
       <r>  24.5949  0.0000</r>
      </set>
      <set comment="kpoint 441">
       <r>  -1.3068  1.0000</r>
       <r>  -1.1205  1.0000</r>
       <r>  -1.0213  1.0000</r>
       <r>  -0.9904  1.0000</r>
       <r>   0.8228  1.0000</r>
       <r>   0.8373  1.0000</r>
       <r>   0.8826  1.0000</r>
       <r>   0.9636  1.0000</r>
       <r>   0.9961  1.0000</r>
       <r>   1.0332  1.0000</r>
       <r>   1.0496  1.0000</r>
       <r>   1.0540  1.0000</r>
       <r>   1.6737  1.0000</r>
       <r>   1.6750  1.0000</r>
       <r>   1.6878  1.0000</r>
       <r>   1.8372  1.0000</r>
       <r>   2.3797  1.0000</r>
       <r>   2.4490  1.0000</r>
       <r>   2.4515  1.0000</r>
       <r>   2.4546  1.0000</r>
       <r>   2.6412  1.0000</r>
       <r>   3.3873  1.0000</r>
       <r>   3.9410  1.0000</r>
       <r>   4.1586  0.9998</r>
       <r>   8.2150  0.0000</r>
       <r>   8.4446  0.0000</r>
       <r>   9.0278  0.0000</r>
       <r>   9.8035  0.0000</r>
       <r>  23.1887  0.0000</r>
       <r>  23.7170  0.0000</r>
       <r>  24.4928  0.0000</r>
       <r>  24.5105  0.0000</r>
      </set>
      <set comment="kpoint 442">
       <r>  -1.2147  1.0000</r>
       <r>  -1.2147  1.0000</r>
       <r>  -1.0104  1.0000</r>
       <r>  -1.0104  1.0000</r>
       <r>   0.8360  1.0000</r>
       <r>   0.8360  1.0000</r>
       <r>   0.9281  1.0000</r>
       <r>   0.9281  1.0000</r>
       <r>   1.0092  1.0000</r>
       <r>   1.0092  1.0000</r>
       <r>   1.0447  1.0000</r>
       <r>   1.0447  1.0000</r>
       <r>   1.7094  1.0000</r>
       <r>   1.7094  1.0000</r>
       <r>   1.7851  1.0000</r>
       <r>   1.7851  1.0000</r>
       <r>   2.4264  1.0000</r>
       <r>   2.4264  1.0000</r>
       <r>   2.4433  1.0000</r>
       <r>   2.4433  1.0000</r>
       <r>   2.9736  1.0000</r>
       <r>   2.9736  1.0000</r>
       <r>   4.0507  1.0000</r>
       <r>   4.0507  1.0000</r>
       <r>   8.2686  0.0000</r>
       <r>   8.2686  0.0000</r>
       <r>   9.3879  0.0000</r>
       <r>   9.3879  0.0000</r>
       <r>  23.5150  0.0000</r>
       <r>  23.5150  0.0000</r>
       <r>  24.6600  0.0000</r>
       <r>  24.6600  0.0000</r>
      </set>
      <set comment="kpoint 443">
       <r>  -1.2425  1.0000</r>
       <r>  -1.1005  1.0000</r>
       <r>  -1.1005  1.0000</r>
       <r>  -1.0359  1.0000</r>
       <r>   0.8555  1.0000</r>
       <r>   0.8853  1.0000</r>
       <r>   0.8853  1.0000</r>
       <r>   0.9518  1.0000</r>
       <r>   0.9868  1.0000</r>
       <r>   1.0171  1.0000</r>
       <r>   1.0171  1.0000</r>
       <r>   1.0275  1.0000</r>
       <r>   1.7821  1.0000</r>
       <r>   1.8006  1.0000</r>
       <r>   1.8006  1.0000</r>
       <r>   1.9380  1.0000</r>
       <r>   2.3721  1.0000</r>
       <r>   2.4357  1.0000</r>
       <r>   2.4357  1.0000</r>
       <r>   2.4369  1.0000</r>
       <r>   2.8442  1.0000</r>
       <r>   3.5313  1.0000</r>
       <r>   3.5313  1.0000</r>
       <r>   3.9404  1.0000</r>
       <r>   8.2562  0.0000</r>
       <r>   8.6774  0.0000</r>
       <r>   8.6774  0.0000</r>
       <r>   9.3656  0.0000</r>
       <r>  23.5536  0.0000</r>
       <r>  24.2759  0.0000</r>
       <r>  24.2759  0.0000</r>
       <r>  25.1298  0.0000</r>
      </set>
      <set comment="kpoint 444">
       <r>  -1.1740  1.0000</r>
       <r>  -1.1740  1.0000</r>
       <r>  -1.0724  1.0000</r>
       <r>  -1.0724  1.0000</r>
       <r>   0.8768  1.0000</r>
       <r>   0.8768  1.0000</r>
       <r>   0.9241  1.0000</r>
       <r>   0.9241  1.0000</r>
       <r>   0.9956  1.0000</r>
       <r>   0.9956  1.0000</r>
       <r>   1.0148  1.0000</r>
       <r>   1.0148  1.0000</r>
       <r>   1.8324  1.0000</r>
       <r>   1.8324  1.0000</r>
       <r>   1.9028  1.0000</r>
       <r>   1.9028  1.0000</r>
       <r>   2.4044  1.0000</r>
       <r>   2.4044  1.0000</r>
       <r>   2.4278  1.0000</r>
       <r>   2.4278  1.0000</r>
       <r>   3.1529  1.0000</r>
       <r>   3.1529  1.0000</r>
       <r>   3.7222  1.0000</r>
       <r>   3.7222  1.0000</r>
       <r>   8.4157  0.0000</r>
       <r>   8.4157  0.0000</r>
       <r>   8.9880  0.0000</r>
       <r>   8.9880  0.0000</r>
       <r>  23.9235  0.0000</r>
       <r>  23.9235  0.0000</r>
       <r>  24.7132  0.0000</r>
       <r>  24.7132  0.0000</r>
      </set>
      <set comment="kpoint 445">
       <r>  -1.1268  1.0000</r>
       <r>  -1.1268  1.0000</r>
       <r>  -1.1268  1.0000</r>
       <r>  -1.1268  1.0000</r>
       <r>   0.9071  1.0000</r>
       <r>   0.9071  1.0000</r>
       <r>   0.9071  1.0000</r>
       <r>   0.9071  1.0000</r>
       <r>   0.9974  1.0000</r>
       <r>   0.9974  1.0000</r>
       <r>   0.9974  1.0000</r>
       <r>   0.9974  1.0000</r>
       <r>   1.9111  1.0000</r>
       <r>   1.9111  1.0000</r>
       <r>   1.9111  1.0000</r>
       <r>   1.9111  1.0000</r>
       <r>   2.4071  1.0000</r>
       <r>   2.4071  1.0000</r>
       <r>   2.4071  1.0000</r>
       <r>   2.4071  1.0000</r>
       <r>   3.4113  1.0000</r>
       <r>   3.4113  1.0000</r>
       <r>   3.4113  1.0000</r>
       <r>   3.4113  1.0000</r>
       <r>   8.6605  0.0000</r>
       <r>   8.6605  0.0000</r>
       <r>   8.6605  0.0000</r>
       <r>   8.6605  0.0000</r>
       <r>  24.3187  0.0000</r>
       <r>  24.3187  0.0000</r>
       <r>  24.3187  0.0000</r>
       <r>  24.3187  0.0000</r>
      </set>
      <set comment="kpoint 446">
       <r>  -1.3361  1.0000</r>
       <r>  -1.0474  1.0000</r>
       <r>  -1.0474  1.0000</r>
       <r>  -1.0474  1.0000</r>
       <r>   0.8528  1.0000</r>
       <r>   0.8528  1.0000</r>
       <r>   0.8528  1.0000</r>
       <r>   0.9800  1.0000</r>
       <r>   0.9800  1.0000</r>
       <r>   1.0359  1.0000</r>
       <r>   1.0359  1.0000</r>
       <r>   1.0359  1.0000</r>
       <r>   1.7310  1.0000</r>
       <r>   1.7310  1.0000</r>
       <r>   1.7310  1.0000</r>
       <r>   2.0635  1.0000</r>
       <r>   2.3844  1.0000</r>
       <r>   2.3844  1.0000</r>
       <r>   2.4704  1.0000</r>
       <r>   2.4704  1.0000</r>
       <r>   2.4704  1.0000</r>
       <r>   3.8250  1.0000</r>
       <r>   3.8250  1.0000</r>
       <r>   3.8250  1.0000</r>
       <r>   8.4290  0.0000</r>
       <r>   8.4290  0.0000</r>
       <r>   8.4290  0.0000</r>
       <r>   9.7784  0.0000</r>
       <r>  23.9612  0.0000</r>
       <r>  23.9612  0.0000</r>
       <r>  23.9612  0.0000</r>
       <r>  25.3341  0.0000</r>
      </set>
      <set comment="kpoint 447">
       <r>  -1.2711  1.0000</r>
       <r>  -1.1275  1.0000</r>
       <r>  -1.0620  1.0000</r>
       <r>  -1.0620  1.0000</r>
       <r>   0.8693  1.0000</r>
       <r>   0.8693  1.0000</r>
       <r>   0.8988  1.0000</r>
       <r>   0.9624  1.0000</r>
       <r>   0.9769  1.0000</r>
       <r>   1.0051  1.0000</r>
       <r>   1.0154  1.0000</r>
       <r>   1.0154  1.0000</r>
       <r>   1.8440  1.0000</r>
       <r>   1.8440  1.0000</r>
       <r>   1.8753  1.0000</r>
       <r>   2.1214  1.0000</r>
       <r>   2.4242  1.0000</r>
       <r>   2.4618  1.0000</r>
       <r>   2.4618  1.0000</r>
       <r>   2.4676  1.0000</r>
       <r>   2.5799  1.0000</r>
       <r>   3.3888  1.0000</r>
       <r>   3.8116  1.0000</r>
       <r>   3.8116  1.0000</r>
       <r>   8.2430  0.0000</r>
       <r>   8.2430  0.0000</r>
       <r>   8.6593  0.0000</r>
       <r>   9.3426  0.0000</r>
       <r>  24.2453  0.0000</r>
       <r>  24.2453  0.0000</r>
       <r>  24.9500  0.0000</r>
       <r>  25.3264  0.0000</r>
      </set>
      <set comment="kpoint 448">
       <r>  -1.2018  1.0000</r>
       <r>  -1.2018  1.0000</r>
       <r>  -1.0669  1.0000</r>
       <r>  -1.0669  1.0000</r>
       <r>   0.8751  1.0000</r>
       <r>   0.8751  1.0000</r>
       <r>   0.9354  1.0000</r>
       <r>   0.9354  1.0000</r>
       <r>   0.9853  1.0000</r>
       <r>   0.9853  1.0000</r>
       <r>   1.0083  1.0000</r>
       <r>   1.0083  1.0000</r>
       <r>   1.8866  1.0000</r>
       <r>   1.8866  1.0000</r>
       <r>   2.0113  1.0000</r>
       <r>   2.0113  1.0000</r>
       <r>   2.4521  1.0000</r>
       <r>   2.4521  1.0000</r>
       <r>   2.4557  1.0000</r>
       <r>   2.4557  1.0000</r>
       <r>   2.9643  1.0000</r>
       <r>   2.9643  1.0000</r>
       <r>   3.8066  1.0000</r>
       <r>   3.8066  1.0000</r>
       <r>   8.1800  0.0000</r>
       <r>   8.1800  0.0000</r>
       <r>   8.9674  0.0000</r>
       <r>   8.9674  0.0000</r>
       <r>  24.3864  0.0000</r>
       <r>  24.3864  0.0000</r>
       <r>  25.1977  0.0000</r>
       <r>  25.1977  0.0000</r>
      </set>
      <set comment="kpoint 449">
       <r>  -1.2296  1.0000</r>
       <r>  -1.1256  1.0000</r>
       <r>  -1.1256  1.0000</r>
       <r>  -1.0931  1.0000</r>
       <r>   0.8930  1.0000</r>
       <r>   0.9076  1.0000</r>
       <r>   0.9076  1.0000</r>
       <r>   0.9572  1.0000</r>
       <r>   0.9648  1.0000</r>
       <r>   0.9874  1.0000</r>
       <r>   0.9874  1.0000</r>
       <r>   0.9925  1.0000</r>
       <r>   1.9789  1.0000</r>
       <r>   2.0069  1.0000</r>
       <r>   2.0069  1.0000</r>
       <r>   2.2499  1.0000</r>
       <r>   2.4141  1.0000</r>
       <r>   2.4580  1.0000</r>
       <r>   2.4602  1.0000</r>
       <r>   2.4602  1.0000</r>
       <r>   2.7302  1.0000</r>
       <r>   3.4355  1.0000</r>
       <r>   3.4355  1.0000</r>
       <r>   3.6679  1.0000</r>
       <r>   8.1687  0.0000</r>
       <r>   8.3861  0.0000</r>
       <r>   8.3861  0.0000</r>
       <r>   8.9477  0.0000</r>
       <r>  24.6065  0.0000</r>
       <r>  25.0686  0.0000</r>
       <r>  25.0686  0.0000</r>
       <r>  25.8723  0.0000</r>
      </set>
      <set comment="kpoint 450">
       <r>  -1.1813  1.0000</r>
       <r>  -1.1813  1.0000</r>
       <r>  -1.1142  1.0000</r>
       <r>  -1.1142  1.0000</r>
       <r>   0.9063  1.0000</r>
       <r>   0.9063  1.0000</r>
       <r>   0.9371  1.0000</r>
       <r>   0.9371  1.0000</r>
       <r>   0.9703  1.0000</r>
       <r>   0.9703  1.0000</r>
       <r>   0.9826  1.0000</r>
       <r>   0.9826  1.0000</r>
       <r>   2.0446  1.0000</r>
       <r>   2.0446  1.0000</r>
       <r>   2.1550  1.0000</r>
       <r>   2.1550  1.0000</r>
       <r>   2.4425  1.0000</r>
       <r>   2.4425  1.0000</r>
       <r>   2.4524  1.0000</r>
       <r>   2.4524  1.0000</r>
       <r>   3.0592  1.0000</r>
       <r>   3.0592  1.0000</r>
       <r>   3.5335  1.0000</r>
       <r>   3.5335  1.0000</r>
       <r>   8.2191  0.0000</r>
       <r>   8.2191  0.0000</r>
       <r>   8.6257  0.0000</r>
       <r>   8.6257  0.0000</r>
       <r>  24.9066  0.0000</r>
       <r>  24.9066  0.0000</r>
       <r>  25.5574  0.0000</r>
       <r>  25.5574  0.0000</r>
      </set>
      <set comment="kpoint 451">
       <r>  -1.1523  1.0000</r>
       <r>  -1.1523  1.0000</r>
       <r>  -1.1523  1.0000</r>
       <r>  -1.1523  1.0000</r>
       <r>   0.9281  1.0000</r>
       <r>   0.9281  1.0000</r>
       <r>   0.9281  1.0000</r>
       <r>   0.9281  1.0000</r>
       <r>   0.9688  1.0000</r>
       <r>   0.9688  1.0000</r>
       <r>   0.9688  1.0000</r>
       <r>   0.9688  1.0000</r>
       <r>   2.1560  1.0000</r>
       <r>   2.1560  1.0000</r>
       <r>   2.1560  1.0000</r>
       <r>   2.1560  1.0000</r>
       <r>   2.4390  1.0000</r>
       <r>   2.4390  1.0000</r>
       <r>   2.4390  1.0000</r>
       <r>   2.4390  1.0000</r>
       <r>   3.2667  1.0000</r>
       <r>   3.2667  1.0000</r>
       <r>   3.2667  1.0000</r>
       <r>   3.2667  1.0000</r>
       <r>   8.3723  0.0000</r>
       <r>   8.3723  0.0000</r>
       <r>   8.3723  0.0000</r>
       <r>   8.3723  0.0000</r>
       <r>  25.2714  0.0000</r>
       <r>  25.2714  0.0000</r>
       <r>  25.2714  0.0000</r>
       <r>  25.2714  0.0000</r>
      </set>
      <set comment="kpoint 452">
       <r>  -1.2088  1.0000</r>
       <r>  -1.1409  1.0000</r>
       <r>  -1.1409  1.0000</r>
       <r>  -1.1409  1.0000</r>
       <r>   0.9223  1.0000</r>
       <r>   0.9223  1.0000</r>
       <r>   0.9223  1.0000</r>
       <r>   0.9544  1.0000</r>
       <r>   0.9544  1.0000</r>
       <r>   0.9684  1.0000</r>
       <r>   0.9684  1.0000</r>
       <r>   0.9684  1.0000</r>
       <r>   2.1679  1.0000</r>
       <r>   2.1679  1.0000</r>
       <r>   2.1679  1.0000</r>
       <r>   2.4442  1.0000</r>
       <r>   2.4442  1.0000</r>
       <r>   2.4663  1.0000</r>
       <r>   2.4663  1.0000</r>
       <r>   2.4663  1.0000</r>
       <r>   2.7316  1.0000</r>
       <r>   3.3537  1.0000</r>
       <r>   3.3537  1.0000</r>
       <r>   3.3537  1.0000</r>
       <r>   8.2070  0.0000</r>
       <r>   8.2070  0.0000</r>
       <r>   8.2070  0.0000</r>
       <r>   8.6089  0.0000</r>
       <r>  25.4537  0.0000</r>
       <r>  25.4537  0.0000</r>
       <r>  25.4537  0.0000</r>
       <r>  26.0467  0.0000</r>
      </set>
      <set comment="kpoint 453">
       <r>  -1.1795  1.0000</r>
       <r>  -1.1795  1.0000</r>
       <r>  -1.1461  1.0000</r>
       <r>  -1.1461  1.0000</r>
       <r>   0.9280  1.0000</r>
       <r>   0.9280  1.0000</r>
       <r>   0.9429  1.0000</r>
       <r>   0.9429  1.0000</r>
       <r>   0.9556  1.0000</r>
       <r>   0.9556  1.0000</r>
       <r>   0.9613  1.0000</r>
       <r>   0.9613  1.0000</r>
       <r>   2.2349  1.0000</r>
       <r>   2.2349  1.0000</r>
       <r>   2.3393  1.0000</r>
       <r>   2.3393  1.0000</r>
       <r>   2.4617  1.0000</r>
       <r>   2.4617  1.0000</r>
       <r>   2.4626  1.0000</r>
       <r>   2.4626  1.0000</r>
       <r>   3.0208  1.0000</r>
       <r>   3.0208  1.0000</r>
       <r>   3.3197  1.0000</r>
       <r>   3.3197  1.0000</r>
       <r>   8.1466  0.0000</r>
       <r>   8.1466  0.0000</r>
       <r>   8.3582  0.0000</r>
       <r>   8.3582  0.0000</r>
       <r>  25.5739  0.0000</r>
       <r>  25.5739  0.0000</r>
       <r>  25.9003  0.0000</r>
       <r>  25.9003  0.0000</r>
      </set>
      <set comment="kpoint 454">
       <r>  -1.1678  1.0000</r>
       <r>  -1.1678  1.0000</r>
       <r>  -1.1678  1.0000</r>
       <r>  -1.1678  1.0000</r>
       <r>   0.9411  1.0000</r>
       <r>   0.9411  1.0000</r>
       <r>   0.9411  1.0000</r>
       <r>   0.9411  1.0000</r>
       <r>   0.9513  1.0000</r>
       <r>   0.9513  1.0000</r>
       <r>   0.9513  1.0000</r>
       <r>   0.9513  1.0000</r>
       <r>   2.3667  1.0000</r>
       <r>   2.3667  1.0000</r>
       <r>   2.3667  1.0000</r>
       <r>   2.3667  1.0000</r>
       <r>   2.4584  1.0000</r>
       <r>   2.4584  1.0000</r>
       <r>   2.4584  1.0000</r>
       <r>   2.4584  1.0000</r>
       <r>   3.1201  1.0000</r>
       <r>   3.1201  1.0000</r>
       <r>   3.1201  1.0000</r>
       <r>   3.1201  1.0000</r>
       <r>   8.1954  0.0000</r>
       <r>   8.1954  0.0000</r>
       <r>   8.1954  0.0000</r>
       <r>   8.1954  0.0000</r>
       <r>  25.8574  0.0000</r>
       <r>  25.8574  0.0000</r>
       <r>  25.8574  0.0000</r>
       <r>  25.8574  0.0000</r>
      </set>
      <set comment="kpoint 455">
       <r>  -1.1731  1.0000</r>
       <r>  -1.1731  1.0000</r>
       <r>  -1.1731  1.0000</r>
       <r>  -1.1731  1.0000</r>
       <r>   0.9455  1.0000</r>
       <r>   0.9455  1.0000</r>
       <r>   0.9455  1.0000</r>
       <r>   0.9455  1.0000</r>
       <r>   0.9455  1.0000</r>
       <r>   0.9455  1.0000</r>
       <r>   0.9455  1.0000</r>
       <r>   0.9455  1.0000</r>
       <r>   2.4649  1.0000</r>
       <r>   2.4649  1.0000</r>
       <r>   2.4649  1.0000</r>
       <r>   2.4649  1.0000</r>
       <r>   2.4649  1.0000</r>
       <r>   2.4649  1.0000</r>
       <r>   2.4649  1.0000</r>
       <r>   2.4649  1.0000</r>
       <r>   3.0438  1.0000</r>
       <r>   3.0438  1.0000</r>
       <r>   3.0438  1.0000</r>
       <r>   3.0438  1.0000</r>
       <r>   8.1358  0.0000</r>
       <r>   8.1358  0.0000</r>
       <r>   8.1358  0.0000</r>
       <r>   8.1358  0.0000</r>
       <r>  25.9959  0.0000</r>
       <r>  25.9959  0.0000</r>
       <r>  25.9959  0.0000</r>
       <r>  25.9959  0.0000</r>
      </set>
     </set>
    </set>
   </array>
  </eigenvalues>
 </calculation>
 <structure name="finalpos" >
  <crystal>
   <varray name="basis" >
    <v>       3.56408774      0.00000000      0.00000000</v>
    <v>       0.00000000      3.56408774      0.00000000</v>
    <v>       0.00000000      0.00000000      3.56408774</v>
   </varray>
   <i name="volume">     45.27361370</i>
   <varray name="rec_basis" >
    <v>       0.28057671      0.00000000      0.00000000</v>
    <v>       0.00000000      0.28057671      0.00000000</v>
    <v>       0.00000000      0.00000000      0.28057671</v>
   </varray>
  </crystal>
  <varray name="positions" >
   <v>       0.00000000      0.00000000      0.00000000</v>
   <v>       0.50000000      0.50000000      0.00000000</v>
   <v>       0.50000000      0.00000000      0.50000000</v>
   <v>       0.00000000      0.50000000      0.50000000</v>
  </varray>
 </structure>
</modeling>
