 vasp.4.6.28 25Jul05 complex 
 executed on             LinuxIFC date 2017.01.25  11:07:56
 running on    4 nodes
 distr:  one band on    1 nodes,    4 groups


--------------------------------------------------------------------------------------------------------


 INCAR:
 POTCAR:   PAW_PBE Au 06Sep2000                   
 POTCAR:   PAW_PBE Au 06Sep2000                   
   VRHFIN =Au: s1d10                                                            
   LEXCH  = PE                                                                  
   EATOM  =   926.0567 eV,   68.0632 Ry                                         
                                                                                
   TITEL  = PAW_PBE Au 06Sep2000                                                
   LULTRA =        F    use ultrasoft PP ?                                      
   IUNSCR =        1    unscreen: 0-lin 1-nonlin 2-no                           
   RPACOR =    2.330    partial core radius                                     
   POMASS =  196.966; ZVAL   =   11.000    mass and valenz                      
   RCORE  =    2.500    outmost cutoff radius                                   
   RWIGS  =    2.840; RWIGS  =    1.503    wigner-seitz radius (au A)           
   ENMAX  =  229.948; ENMIN  =  172.461 eV                                      
   RCLOC  =    1.964    cutoff for local pot                                    
   LCOR   =        T    correct aug charges                                     
   LPAW   =        T    paw PP                                                  
   EAUG   =  356.670                                                            
   DEXC   =    -.025                                                            
   RMAX   =    3.041    core radius for proj-oper                               
   RAUG   =    1.300    factor for augmentation sphere                          
   RDEP   =    2.598    radius for radial grids                                 
   QCUT   =   -4.111; QGAM   =    8.222    optimization parameters              
                                                                                
   Description                                                                  
     l     E      TYP  RCUT    TYP  RCUT                                        
     2   .000     23  2.500                                                     
     2   .000     23  2.500                                                     
     0   .000     23  2.500                                                     
     0   .000     23  2.500                                                     
     1  -.200     23  2.500                                                     
     1   .000     23  2.500                                                     
     3   .000      7   .000                                                     
  local pseudopotential read in
  partial core-charges read in
  atomic valenz-charges read in
  non local Contribution for L=           2  read in
    real space projection operators read in
  non local Contribution for L=           2  read in
    real space projection operators read in
  non local Contribution for L=           0  read in
    real space projection operators read in
  non local Contribution for L=           0  read in
    real space projection operators read in
  non local Contribution for L=           1  read in
    real space projection operators read in
  non local Contribution for L=           1  read in
    real space projection operators read in
    PAW grid and wavefunctions read in
 
   number of l-projection  operators is LMAX  =           6
   number of lm-projection operators is LMMAX =          18
 

 ----------------------------------------------------------------------------- 
|                                                                             |
|  ADVICE TO THIS USER RUNNING 'VASP/VAMP'   (HEAR YOUR MASTER'S VOICE ...):  |
|                                                                             |
|      You have a (more or less) 'large supercell' and for larger cells       |
|      it might be more efficient to use real space projection operators      |
|      So try LREAL= Auto  in the INCAR   file.                               |
|      Mind: If you want to do an extremely accurate calculations keep the    |
|      reciprocal projection scheme          (i.e. LREAL=.FALSE.)             |
|                                                                             |
 ----------------------------------------------------------------------------- 

 PAW_PBE Au 06Sep2000                   :
 energy of atom  1       EATOM= -926.0567
 kinetic energy error for atom=    0.0013 (will be added to EATOM!!)
 
 EXHCAR: internal setup
 exchange correlation table for  LEXCH =        8
   RHO(1)=    0.500       N(1)  =     2000
   RHO(2)=  100.500       N(2)  =     4000
 
 POSCAR: No title                                
  positions in direct lattice
  No initial velocities read in
 


--------------------------------------------------------------------------------------------------------


 ion  position               nearest neighbor table
   1  0.750  0.750  0.500-   3 3.15  14 3.15  19 3.15  20 3.15   5 3.15  26 3.15   6 3.15  29 3.15
                            11 3.15  18 3.15  10 3.15   8 3.15
   2  0.750  0.750  0.000-  12 3.14  10 3.15   8 3.15  22 3.15  27 3.15  11 3.15  18 3.15  32 3.15
                             5 3.15  26 3.15   3 3.15  20 3.15
   3  0.750  0.000  0.250-  12 3.14   5 3.15   9 3.15   1 3.15  28 3.15  19 3.15  13 3.15  18 3.15
                            27 3.15   6 3.15   4 3.15   2 3.15
   4  0.750  0.250  0.500-   6 3.15   8 3.15  10 3.15  29 3.15  13 3.15  31 3.15  14 3.15  19 3.15
                            21 3.15  28 3.15   3 3.15  20 3.15
   5  0.000  0.750  0.250-   3 3.15  14 3.15  25 3.15  15 3.15   1 3.15  16 3.15  10 3.15   7 3.15
                             2 3.15  22 3.15   6 3.15  12 3.15
   6  0.000  0.000  0.500-   4 3.15   7 3.15  11 3.15  13 3.15   8 3.15  16 3.15   1 3.15  17 3.15
                             3 3.15  23 3.15  21 3.15   5 3.15
   7  0.250  0.750  0.500-   6 3.15  16 3.15  29 3.15  30 3.15  11 3.15  18 3.15  14 3.15  19 3.15
                             5 3.15  26 3.15  25 3.15  23 3.15
   8  0.750  0.000  0.750-  12 3.14   4 3.15  11 3.15   2 3.15  31 3.15  27 3.15   6 3.15  21 3.15
                            26 3.15  19 3.15   9 3.15   1 3.15
   9  0.750  0.250  0.000-  12 3.14   3 3.15  20 3.15  32 3.15  28 3.15  21 3.15  22 3.15  27 3.15
                            31 3.15  13 3.15  10 3.15   8 3.15
  10  0.750  0.500  0.250-   2 3.15   4 3.15  13 3.15  18 3.15  22 3.15  29 3.15  28 3.15   5 3.15
                            14 3.15  32 3.15   9 3.15   1 3.15
  11  0.000  0.750  0.750-   6 3.15   8 3.15  22 3.15  30 3.15   7 3.15   2 3.15  23 3.15  20 3.15
                             1 3.15  15 3.15  14 3.15  12 3.15
  12  0.998  0.000  0.000-   9 3.14   3 3.14   8 3.14   2 3.14   5 3.15  21 3.15  11 3.15  13 3.15
                            15 3.17  23 3.17  16 3.17  24 3.17
  13  0.000  0.250  0.250-   6 3.15  10 3.15  16 3.15  22 3.15   4 3.15  24 3.15   3 3.15  25 3.15
                            17 3.15   9 3.15  14 3.15  12 3.15
  14  0.000  0.500  0.500-   1 3.15   5 3.15  17 3.15  21 3.15  20 3.15  25 3.15   4 3.15   7 3.15
                            10 3.15  30 3.15  13 3.15  11 3.15
  15  0.250  0.750  0.000-  23 3.15  25 3.15  32 3.15  26 3.15   5 3.15  27 3.15  22 3.15  11 3.15
                            18 3.15  30 3.15  16 3.15  12 3.17
  16  0.250  0.000  0.250-   7 3.15  13 3.15  18 3.15  24 3.15   6 3.15  27 3.15   5 3.15  28 3.15
                            19 3.15  17 3.15  15 3.15  12 3.17
  17  0.250  0.250  0.500-  14 3.15  19 3.15  23 3.15  25 3.15  21 3.15  28 3.15   6 3.15  29 3.15
                            13 3.15  31 3.15  30 3.15  16 3.15
  18  0.500  0.750  0.250-  10 3.15  16 3.15  27 3.15  29 3.15   2 3.15   7 3.15   3 3.15  25 3.15
                             1 3.15  15 3.15  19 3.15  32 3.15
  19  0.500  0.000  0.500-   1 3.15  17 3.15  26 3.15  28 3.15   3 3.15  23 3.15   4 3.15   7 3.15
                             8 3.15  16 3.15  18 3.15  31 3.15
  20  0.750  0.500  0.750-   1 3.15   9 3.15  21 3.15  26 3.15  14 3.15  32 3.15  31 3.15  11 3.15
                            22 3.15  29 3.15   4 3.15   2 3.15
  21  0.000  0.250  0.750-  14 3.15  20 3.15  23 3.15   9 3.15  17 3.15   8 3.15  30 3.15  24 3.15
                             4 3.15  22 3.15   6 3.15  12 3.15
  22  0.000  0.500  0.000-   2 3.15  11 3.15  13 3.15  24 3.15  10 3.15  30 3.15   9 3.15  15 3.15
                            25 3.15  20 3.15  21 3.15   5 3.15
  23  0.250  0.000  0.750-  15 3.15  17 3.15  21 3.15  26 3.15  19 3.15  11 3.15  31 3.15  27 3.15
                             6 3.15  24 3.15   7 3.15  12 3.17
  24  0.250  0.250  0.000-  16 3.15  22 3.15  27 3.15  30 3.15  13 3.15  31 3.15  32 3.15  28 3.15
                            21 3.15  25 3.15  23 3.15  12 3.17
  25  0.250  0.500  0.250-   5 3.15  15 3.15  17 3.15  28 3.15  14 3.15  32 3.15  13 3.15  18 3.15
                            29 3.15  22 3.15  24 3.15   7 3.15
  26  0.500  0.750  0.750-  19 3.15  20 3.15  23 3.15  32 3.15   1 3.15  15 3.15  30 3.15   8 3.15
                             7 3.15   2 3.15  27 3.15  29 3.15
  27  0.500  0.000  0.000-   2 3.15  18 3.15  24 3.15  31 3.15  16 3.15   8 3.15   9 3.15  15 3.15
                             3 3.15  23 3.15  28 3.15  26 3.15
  28  0.500  0.250  0.250-   3 3.15  19 3.15  25 3.15  32 3.15  17 3.15   9 3.15  10 3.15  16 3.15
                             4 3.15  24 3.15  29 3.15  27 3.15
  29  0.500  0.500  0.500-   4 3.15   7 3.15  18 3.15  31 3.15  30 3.15  10 3.15  17 3.15   1 3.15
                            20 3.15  25 3.15  26 3.15  28 3.15
  30  0.250  0.500  0.750-   7 3.15  11 3.15  24 3.15  31 3.15  29 3.15  22 3.15  21 3.15  26 3.15
                            14 3.15  32 3.15  17 3.15  15 3.15
  31  0.500  0.250  0.750-   8 3.15  27 3.15  29 3.15  30 3.15  24 3.15   4 3.15  20 3.15  23 3.15
                             9 3.15  17 3.15  19 3.15  32 3.15
  32  0.500  0.500  0.000-   9 3.15  15 3.15  26 3.15  28 3.15  20 3.15  25 3.15  24 3.15   2 3.15
                            10 3.15  30 3.15  18 3.15  31 3.15
 
  LATTYP: Found a simple cubic cell.
 ALAT       =     8.9156168400
  
  Lattice vectors:
  
 A1 = (   8.9156168400,   0.0000000000,   0.0000000000)
 A2 = (   0.0000001600,   8.9156168400,   0.0000000000)
 A3 = (   0.0000001600,   0.0000001600,   8.9156168400)
 Subroutine PRICEL returns:
 Original cell was already a primitive cell.
 

Analysis of symmetry for initial positions (statically):

 Routine SETGRP: Setting up the symmetry group for a 
 simple cubic supercell.


 Subroutine GETGRP returns: Found  8 space group operations
 (whereof  8 operations were pure point group operations)
 out of a pool of 48 trial point group operations.


The static configuration has the point symmetry C_4v.

Analysis of symmetry for dynamics (positions and initial velocities):

 Subroutine DYNSYM returns: Found  8 space group operations
 (whereof  8 operations were pure point group operations)
 out of a pool of  8 trial space group operations
 (whereof  8 operations were pure point group operations)
 and found also     1 'primitive' translations


The dynamic configuration has the point symmetry C_4v.
 
 
 KPOINTS: Automatic mesh                          

Automatic generation of k-mesh.
 
 Subroutine IBZKPT returns following result:
 ===========================================
 
 Found     40 irreducible k-points:
 
 Following reciprocal coordinates:
            Coordinates               Weight
  0.062500  0.062500  0.062500      8.000000
  0.187500  0.062500  0.062500      8.000000
  0.312500  0.062500  0.062500      8.000000
  0.437500  0.062500  0.062500      8.000000
  0.062500  0.187500  0.062500     16.000000
  0.187500  0.187500  0.062500     16.000000
  0.312500  0.187500  0.062500     16.000000
  0.437500  0.187500  0.062500     16.000000
  0.062500  0.312500  0.062500     16.000000
  0.187500  0.312500  0.062500     16.000000
  0.312500  0.312500  0.062500     16.000000
  0.437500  0.312500  0.062500     16.000000
  0.062500  0.437500  0.062500     16.000000
  0.187500  0.437500  0.062500     16.000000
  0.312500  0.437500  0.062500     16.000000
  0.437500  0.437500  0.062500     16.000000
  0.062500  0.187500  0.187500      8.000000
  0.187500  0.187500  0.187500      8.000000
  0.312500  0.187500  0.187500      8.000000
  0.437500  0.187500  0.187500      8.000000
  0.062500  0.312500  0.187500     16.000000
  0.187500  0.312500  0.187500     16.000000
  0.312500  0.312500  0.187500     16.000000
  0.437500  0.312500  0.187500     16.000000
  0.062500  0.437500  0.187500     16.000000
  0.187500  0.437500  0.187500     16.000000
  0.312500  0.437500  0.187500     16.000000
  0.437500  0.437500  0.187500     16.000000
  0.062500  0.312500  0.312500      8.000000
  0.187500  0.312500  0.312500      8.000000
  0.312500  0.312500  0.312500      8.000000
  0.437500  0.312500  0.312500      8.000000
  0.062500  0.437500  0.312500     16.000000
  0.187500  0.437500  0.312500     16.000000
  0.312500  0.437500  0.312500     16.000000
  0.437500  0.437500  0.312500     16.000000
  0.062500  0.437500  0.437500      8.000000
  0.187500  0.437500  0.437500      8.000000
  0.312500  0.437500  0.437500      8.000000
  0.437500  0.437500  0.437500      8.000000
 
 Following cartesian coordinates:
            Coordinates               Weight
  0.007010  0.007010  0.007010      8.000000
  0.021031  0.007010  0.007010      8.000000
  0.035051  0.007010  0.007010      8.000000
  0.049071  0.007010  0.007010      8.000000
  0.007010  0.021031  0.007010     16.000000
  0.021031  0.021031  0.007010     16.000000
  0.035051  0.021031  0.007010     16.000000
  0.049071  0.021031  0.007010     16.000000
  0.007010  0.035051  0.007010     16.000000
  0.021031  0.035051  0.007010     16.000000
  0.035051  0.035051  0.007010     16.000000
  0.049071  0.035051  0.007010     16.000000
  0.007010  0.049071  0.007010     16.000000
  0.021031  0.049071  0.007010     16.000000
  0.035051  0.049071  0.007010     16.000000
  0.049071  0.049071  0.007010     16.000000
  0.007010  0.021031  0.021031      8.000000
  0.021031  0.021031  0.021031      8.000000
  0.035051  0.021031  0.021031      8.000000
  0.049071  0.021031  0.021031      8.000000
  0.007010  0.035051  0.021031     16.000000
  0.021031  0.035051  0.021031     16.000000
  0.035051  0.035051  0.021031     16.000000
  0.049071  0.035051  0.021031     16.000000
  0.007010  0.049071  0.021031     16.000000
  0.021031  0.049071  0.021031     16.000000
  0.035051  0.049071  0.021031     16.000000
  0.049071  0.049071  0.021031     16.000000
  0.007010  0.035051  0.035051      8.000000
  0.021031  0.035051  0.035051      8.000000
  0.035051  0.035051  0.035051      8.000000
  0.049071  0.035051  0.035051      8.000000
  0.007010  0.049071  0.035051     16.000000
  0.021031  0.049071  0.035051     16.000000
  0.035051  0.049071  0.035051     16.000000
  0.049071  0.049071  0.035051     16.000000
  0.007010  0.049071  0.049071      8.000000
  0.021031  0.049071  0.049071      8.000000
  0.035051  0.049071  0.049071      8.000000
  0.049071  0.049071  0.049071      8.000000
 


--------------------------------------------------------------------------------------------------------




 Dimension of arrays:
   k-Points           NKPTS =     40   number of bands    NBANDS=    212
   number of dos      NEDOS =    301   number of ions     NIONS =     32
   non local maximal  LDIM  =      6   non local SUM 2l+1 LMDIM =     18
   total plane-waves  NPLWV = 373248
   max r-space proj   IRMAX =      1   max aug-charges    IRDMAX= 257832
   dimension x,y,z NGX =    72 NGY =   72 NGZ =   72
   dimension x,y,z NGXF=   144 NGYF=  144 NGZF=  144
   support grid    NGXF=   288 NGYF=  288 NGZF=  288
   ions per type =              32
 NGX,Y,Z   is equivalent  to a cutoff of  13.43, 13.43, 13.43 a.u.
 NGXF,Y,Z  is equivalent  to a cutoff of  26.85, 26.85, 26.85 a.u.


 I would recommend the setting:
   dimension x,y,z NGX =    71 NGY =   71 NGZ =   71
 SYSTEM =  No title                                
 POSCAR =  No title                                

 Startparameter for this run:
   NWRITE =      2    write-flag & timer
   PREC   = accura    medium, high low
   ISTART =      1    job   : 0-new  1-cont  2-samecut
   ICHARG =      0    charge: 1-file 2-atom 10-const
   ISPIN  =      1    spin polarized calculation?
   LNONCOLLINEAR =      F non collinear calculations
   LSORBIT =      F    spin-orbit coupling
   INIWAV =      1    electr: 0-lowe 1-rand  2-diag
   LASPH  =      F    aspherical Exc in radial PAW
   METAGGA=      F    non-selfconsistent MetaGGA calc.

 Electronic Relaxation 1
   ENCUT  =  600.0 eV  44.10 Ry    6.64 a.u.  17.81 17.81 17.81*2*pi/ulx,y,z
   ENINI  =  600.0     initial cutoff
   ENAUG  =  356.7 eV  augmentation charge cutoff
   NELM   =     60;   NELMIN=  2; NELMDL=  0     # of ELM steps 
   EDIFF  = 0.1E-04   stopping-criterion for ELM
   LREAL  =      F    real-space projection
   LCOMPAT=      F    compatible to vasp.4.4
   LREAL_COMPAT= F    compatible to vasp.4.5.1-3
   GGA_COMPAT  = T    GGA compatible to vasp.4.4-vasp.4.6
   LMAXPAW     = -100 max onsite density
   LMAXMIX     =    2 max onsite mixed and CHGCAR
   VOSKOWN=      1    Vosko Wilk Nusair interpolation
   ROPT   =    0.00000
 Ionic relaxation
   EDIFFG = -.2E-01   stopping-criterion for IOM
   NSW    =      0    number of steps for IOM
   NBLOCK =      1;   KBLOCK =      1    inner block; outer block 
   IBRION =     -1    ionic relax: 0-MD 1-quasi-New 2-CG
   NFREE  =      0    steps in history (QN), initial steepest desc. (CG)
   ISIF   =      2    stress and relaxation
   IWAVPR =     10    prediction:  0-non 1-charg 2-wave 3-comb
   ISYM   =      2    0-nonsym 1-usesym 2-fastsym
   LCORR  =      T    Harris-Foulkes like correction to forces

   POTIM  =   0.50    time-step for ionic-motion
   TEIN   =    0.0    initial temperature
   TEBEG  =    0.0;   TEEND  =   0.0 temperature during run
   SMASS  =  -3.00    Nose mass-parameter (am)
   estimated Nose-frequenzy (Omega)   =  0.10E-29 period in steps =****** mass=  -0.182E-26a.u.
   NPACO  =    256;   APACO  = 16.0  distance and # of slots for P.C.
   PSTRESS=    0.0 pullay stress

  Mass of Ions in am
   POMASS = 196.97
  Ionic Valenz
   ZVAL   =  11.00
  Atomic Wigner-Seitz radii
   RWIGS  =   1.34
   NELECT =     352.0000    total number of electrons
   NUPDOWN=      -1.0000    fix difference up-down

 DOS related values:
   EMIN   =  10.00;   EMAX   =-10.00  energy-range for DOS
   ISMEAR =     1;   SIGMA  =   0.20  broadening in eV -4-tet -1-fermi 0-gaus

 Electronic relaxation 2 (details)
   IALGO  =     48    algorithm
   LDIAG  =      T    sub-space diagonalisation
   IMIX   =      4    mixing-type and parameters
     AMIX     =   0.40;   BMIX     =  1.00
     AMIX_MAG =   1.60;   BMIX_MAG =  1.00
     AMIN     =   0.10
     WC   =   100.;   INIMIX=   1;  MIXPRE=   1

 Intra band minimization:
   WEIMIN = 0.0000     energy-eigenvalue tresh-hold
   EBREAK =  0.12E-07  absolut break condition
   DEPER  =   0.30     relativ break condition  

   TIME   =   0.10     timestep for ELM

  volume/ion in A,a.u.               =      22.15       149.45
  Fermi-wavevector in a.u.,eV,Ry     =   1.296495 22.870038  1.680900

 Second variation
   LSECVAR=     F    do a second variation
 
 Write flags
   LWAVE  =      F    write WAVECAR
   LCHARG =      F    write CHGCAR
   LVTOT  =      F    write LOCPOT, local potential
   LELF   =      F    write electronic localiz. function (ELF)
   LORBIT =      0    0 simple, 1 ext, 2 COOP (PROOUT)


 Dipole corrections
   IDIPOL =      0    1-x, 2-y, 3-z
   LDIPOL =      F    correct potential



--------------------------------------------------------------------------------------------------------


 Static calculation
 charge density will be updated during run
 non-spin polarized calculation
 RMM-DIIS sequential band-by-band
 performe sub-space diagonalisation
    before iterative eigenvector-optimisation
 modified Broyden-mixing scheme, WC =      100.0
 initial mixing is a Kerker type mixing with AMIX =  0.4000 and BMIX =      1.0000
 Hartree-type preconditioning will be used
 using additional bands           36
 reciprocal scheme for non local part
 use partial core corrections
 calculate Harris-corrections to forces 
   (improved forces if not selfconsistent)
 use gradient corrections 
 use of overlap-Matrix (Vanderbilt PP)
 Methfessel and Paxton  Order N= 1 SIGMA  =   0.20


--------------------------------------------------------------------------------------------------------


  energy-cutoff  :      600.00
  volume of cell :      708.69
      direct lattice vectors                 reciprocal lattice vectors
     8.915616840  0.000000000  0.000000000     0.112162738 -0.000000002 -0.000000002
     0.000000160  8.915616840  0.000000000     0.000000000  0.112162738 -0.000000002
     0.000000160  0.000000160  8.915616840     0.000000000  0.000000000  0.112162738

  length of vectors
     8.915616840  8.915616840  8.915616840     0.112162738  0.112162738  0.112162738


 
 old parameters found on file WAVECAR:
  energy-cutoff  :      600.00
  volume of cell :      708.69
      direct lattice vectors                 reciprocal lattice vectors
     8.915616840  0.000000000  0.000000000     0.112162738 -0.000000002 -0.000000002
     0.000000160  8.915616840  0.000000000     0.000000000  0.112162738 -0.000000002
     0.000000160  0.000000160  8.915616840     0.000000000  0.000000000  0.112162738

  length of vectors

 
 k-points in units of 2pi/SCALE and weight: Automatic mesh                          
   0.00701017  0.00701017  0.00701017       0.016
   0.02103051  0.00701017  0.00701017       0.016
   0.03505086  0.00701017  0.00701017       0.016
   0.04907120  0.00701017  0.00701017       0.016
   0.00701017  0.02103051  0.00701017       0.031
   0.02103051  0.02103051  0.00701017       0.031
   0.03505086  0.02103051  0.00701017       0.031
   0.04907120  0.02103051  0.00701017       0.031
   0.00701017  0.03505086  0.00701017       0.031
   0.02103051  0.03505086  0.00701017       0.031
   0.03505086  0.03505086  0.00701017       0.031
   0.04907120  0.03505085  0.00701017       0.031
   0.00701017  0.04907120  0.00701017       0.031
   0.02103051  0.04907120  0.00701017       0.031
   0.03505086  0.04907120  0.00701017       0.031
   0.04907120  0.04907120  0.00701017       0.031
   0.00701017  0.02103051  0.02103051       0.016
   0.02103051  0.02103051  0.02103051       0.016
   0.03505086  0.02103051  0.02103051       0.016
   0.04907120  0.02103051  0.02103051       0.016
   0.00701017  0.03505086  0.02103051       0.031
   0.02103051  0.03505086  0.02103051       0.031
   0.03505086  0.03505086  0.02103051       0.031
   0.04907120  0.03505085  0.02103051       0.031
   0.00701017  0.04907120  0.02103051       0.031
   0.02103051  0.04907120  0.02103051       0.031
   0.03505086  0.04907120  0.02103051       0.031
   0.04907120  0.04907120  0.02103051       0.031
   0.00701017  0.03505086  0.03505086       0.016
   0.02103051  0.03505086  0.03505085       0.016
   0.03505086  0.03505086  0.03505085       0.016
   0.04907120  0.03505085  0.03505085       0.016
   0.00701017  0.04907120  0.03505085       0.031
   0.02103051  0.04907120  0.03505085       0.031
   0.03505086  0.04907120  0.03505085       0.031
   0.04907120  0.04907120  0.03505085       0.031
   0.00701017  0.04907120  0.04907120       0.016
   0.02103051  0.04907120  0.04907120       0.016
   0.03505086  0.04907120  0.04907120       0.016
   0.04907120  0.04907120  0.04907120       0.016
 
 k-points in reciprocal lattice and weights: Automatic mesh                          
   0.06250000  0.06250000  0.06250000       0.016
   0.18750000  0.06250000  0.06250000       0.016
   0.31250000  0.06250000  0.06250000       0.016
   0.43750000  0.06250000  0.06250000       0.016
   0.06250000  0.18750000  0.06250000       0.031
   0.18750000  0.18750000  0.06250000       0.031
   0.31250000  0.18750000  0.06250000       0.031
   0.43750000  0.18750000  0.06250000       0.031
   0.06250000  0.31250000  0.06250000       0.031
   0.18750000  0.31250000  0.06250000       0.031
   0.31250000  0.31250000  0.06250000       0.031
   0.43750000  0.31250000  0.06250000       0.031
   0.06250000  0.43750000  0.06250000       0.031
   0.18750000  0.43750000  0.06250000       0.031
   0.31250000  0.43750000  0.06250000       0.031
   0.43750000  0.43750000  0.06250000       0.031
   0.06250000  0.18750000  0.18750000       0.016
   0.18750000  0.18750000  0.18750000       0.016
   0.31250000  0.18750000  0.18750000       0.016
   0.43750000  0.18750000  0.18750000       0.016
   0.06250000  0.31250000  0.18750000       0.031
   0.18750000  0.31250000  0.18750000       0.031
   0.31250000  0.31250000  0.18750000       0.031
   0.43750000  0.31250000  0.18750000       0.031
   0.06250000  0.43750000  0.18750000       0.031
   0.18750000  0.43750000  0.18750000       0.031
   0.31250000  0.43750000  0.18750000       0.031
   0.43750000  0.43750000  0.18750000       0.031
   0.06250000  0.31250000  0.31250000       0.016
   0.18750000  0.31250000  0.31250000       0.016
   0.31250000  0.31250000  0.31250000       0.016
   0.43750000  0.31250000  0.31250000       0.016
   0.06250000  0.43750000  0.31250000       0.031
   0.18750000  0.43750000  0.31250000       0.031
   0.31250000  0.43750000  0.31250000       0.031
   0.43750000  0.43750000  0.31250000       0.031
   0.06250000  0.43750000  0.43750000       0.016
   0.18750000  0.43750000  0.43750000       0.016
   0.31250000  0.43750000  0.43750000       0.016
   0.43750000  0.43750000  0.43750000       0.016
 
 position of ions in fractional coordinates (direct lattice) 
   0.75000000  0.75000000  0.50000000
   0.75000000  0.75000000  0.00000000
   0.75000000  0.00000000  0.25000000
   0.75000000  0.25000000  0.50000000
   0.00000000  0.75000000  0.25000000
   0.00000000  0.00000000  0.50000000
   0.25000000  0.75000000  0.50000000
   0.75000000  0.00000000  0.75000000
   0.75000000  0.25000000  0.00000000
   0.75000000  0.50000000  0.25000000
   0.00000000  0.75000000  0.75000000
   0.99775700  0.00000000  0.00000000
   0.00000000  0.25000000  0.25000000
   0.00000000  0.50000000  0.50000000
   0.25000000  0.75000000  0.00000000
   0.25000000  0.00000000  0.25000000
   0.25000000  0.25000000  0.50000000
   0.50000000  0.75000000  0.25000000
   0.50000000  0.00000000  0.50000000
   0.75000000  0.50000000  0.75000000
   0.00000000  0.25000000  0.75000000
   0.00000000  0.50000000  0.00000000
   0.25000000  0.00000000  0.75000000
   0.25000000  0.25000000  0.00000000
   0.25000000  0.50000000  0.25000000
   0.50000000  0.75000000  0.75000000
   0.50000000  0.00000000  0.00000000
   0.50000000  0.25000000  0.25000000
   0.50000000  0.50000000  0.50000000
   0.25000000  0.50000000  0.75000000
   0.50000000  0.25000000  0.75000000
   0.50000000  0.50000000  0.00000000
 
 position of ions in cartesian coordinates  (Angst):
   6.68671283  6.68671271  4.45780842
   6.68671275  6.68671263  0.00000000
   6.68671267  0.00000004  2.22890421
   6.68671275  2.22890429  4.45780842
   0.00000016  6.68671267  2.22890421
   0.00000008  0.00000008  4.45780842
   2.22890441  6.68671271  4.45780842
   6.68671275  0.00000012  6.68671263
   6.68671267  2.22890421  0.00000000
   6.68671275  4.45780846  2.22890421
   0.00000024  6.68671275  6.68671263
   8.89561911  0.00000000  0.00000000
   0.00000008  2.22890425  2.22890421
   0.00000016  4.45780850  4.45780842
   2.22890433  6.68671263  0.00000000
   2.22890425  0.00000004  2.22890421
   2.22890433  2.22890429  4.45780842
   4.45780858  6.68671267  2.22890421
   4.45780850  0.00000008  4.45780842
   6.68671283  4.45780854  6.68671263
   0.00000016  2.22890433  6.68671263
   0.00000008  4.45780842  0.00000000
   2.22890433  0.00000012  6.68671263
   2.22890425  2.22890421  0.00000000
   2.22890433  4.45780846  2.22890421
   4.45780866  6.68671275  6.68671263
   4.45780842  0.00000000  0.00000000
   4.45780850  2.22890425  2.22890421
   4.45780858  4.45780850  4.45780842
   2.22890441  4.45780854  6.68671263
   4.45780858  2.22890433  6.68671263
   4.45780850  4.45780842  0.00000000
 


--------------------------------------------------------------------------------------------------------


 k-point  1 :  0.06250.06250.0625  plane waves:  23637
 k-point  2 :  0.18750.06250.0625  plane waves:  23632
 k-point  3 :  0.31250.06250.0625  plane waves:  23622
 k-point  4 :  0.43750.06250.0625  plane waves:  23684
 k-point  5 :  0.06250.18750.0625  plane waves:  23632
 k-point  6 :  0.18750.18750.0625  plane waves:  23656
 k-point  7 :  0.31250.18750.0625  plane waves:  23646
 k-point  8 :  0.43750.18750.0625  plane waves:  23638
 k-point  9 :  0.06250.31250.0625  plane waves:  23622
 k-point 10 :  0.18750.31250.0625  plane waves:  23646
 k-point 11 :  0.31250.31250.0625  plane waves:  23685
 k-point 12 :  0.43750.31250.0625  plane waves:  23663
 k-point 13 :  0.06250.43750.0625  plane waves:  23684
 k-point 14 :  0.18750.43750.0625  plane waves:  23638
 k-point 15 :  0.31250.43750.0625  plane waves:  23663
 k-point 16 :  0.43750.43750.0625  plane waves:  23651
 k-point 17 :  0.06250.18750.1875  plane waves:  23656
 k-point 18 :  0.18750.18750.1875  plane waves:  23619
 k-point 19 :  0.31250.18750.1875  plane waves:  23645
 k-point 20 :  0.43750.18750.1875  plane waves:  23652
 k-point 21 :  0.06250.31250.1875  plane waves:  23646
 k-point 22 :  0.18750.31250.1875  plane waves:  23645
 k-point 23 :  0.31250.31250.1875  plane waves:  23638
 k-point 24 :  0.43750.31250.1875  plane waves:  23663
 k-point 25 :  0.06250.43750.1875  plane waves:  23638
 k-point 26 :  0.18750.43750.1875  plane waves:  23652
 k-point 27 :  0.31250.43750.1875  plane waves:  23663
 k-point 28 :  0.43750.43750.1875  plane waves:  23653
 k-point 29 :  0.06250.31250.3125  plane waves:  23685
 k-point 30 :  0.18750.31250.3125  plane waves:  23638
 k-point 31 :  0.31250.31250.3125  plane waves:  23654
 k-point 32 :  0.43750.31250.3125  plane waves:  23645
 k-point 33 :  0.06250.43750.3125  plane waves:  23663
 k-point 34 :  0.18750.43750.3125  plane waves:  23663
 k-point 35 :  0.31250.43750.3125  plane waves:  23645
 k-point 36 :  0.43750.43750.3125  plane waves:  23636
 k-point 37 :  0.06250.43750.4375  plane waves:  23651
 k-point 38 :  0.18750.43750.4375  plane waves:  23653
 k-point 39 :  0.31250.43750.4375  plane waves:  23636
 k-point 40 :  0.43750.43750.4375  plane waves:  23690

 maximum and minimum number of plane-waves per node :  23690 23619

 maximum number of plane-waves:  23690
 maximal index in each direction: 
   IXMAX= 17   IYMAX= 17   IZMAX= 17
   IXMIN=-18   IYMIN=-18   IZMIN=-18

 NGX is ok and might be reduce to  72
 NGY is ok and might be reduce to  72
 NGZ is ok and might be reduce to  72

 parallel 3dFFT wavefunction:
    minimum data exchange during FFTs selected (reduces bandwidth)
 parallel 3dFFT charge:
    minimum data exchange during FFTs selected (reduces bandwidth)

 For storing wavefunctions 3208.93 MBYTES are necessary
 For predicting wavefunctions  172.24 MBYTES are necessary
Broyden mixing: mesh for mixing (old mesh)
   NGX = 35   NGY = 35   NGZ = 35
  (NGX  =144   NGY  =144   NGZ  =144)
 gives a total of  42875 points
 charge density for first step will be calculated from the start-wavefunctions


--------------------------------------------------------------------------------------------------------


 Maximum index for augmentation-charges        62475 (set IRDMAX)


--------------------------------------------------------------------------------------------------------


 initial charge from wavefunction
 First call to EWALD:  gamma=   0.199
 Maximum number of real-space cells 3x 3x 3
 Maximum number of reciprocal cells 3x 3x 3

    FEWALD:  VPU time    0.00: CPU time    0.01


----------------------------------------- Iteration    1(   1)  ---------------------------------------


    POTLOK:  VPU time    0.45: CPU time    0.45
    SETDIJ:  VPU time    0.58: CPU time    0.58
    EDDIAG:  VPU time   33.64: CPU time   33.63
  RMM-DIIS:  VPU time  193.46: CPU time  193.45
    ORTHCH:  VPU time    6.63: CPU time    6.63
    DOS   :  VPU time    0.00: CPU time   -0.00
    CHARGE:  VPU time   13.75: CPU time   13.75
    MIXING:  VPU time    0.02: CPU time    0.02
    ------------------------------------------
      LOOP:  VPU time  248.60: CPU time  248.58

 eigenvalue-minimisations  : 17641
 total energy-change (2. order) :-0.9986172E+02  (-0.6145915E+02)
 number of electron  352.0000010 magnetization 
 augmentation part   133.5793715 magnetization 

 Broyden mixing:
  rms(total) = 0.81657E+00    rms(broyden)= 0.76917E+00
  rms(prec ) = 0.11536E+01
  weight for this iteration     100.00

 Free energy of the ion-electron system (eV)
  ---------------------------------------------------
  alpha Z        PSCENC =      2706.08790652
  Ewald energy   TEWEN  =    -28672.48839723
  -1/2 Hartree   DENC   =     -4631.86469118
  -V(xc)+E(xc)   XCENC  =       420.70114654
  PAW double counting   =     22467.92200191   -21772.33547095
  entropy T*S    EENTRO =        -0.00620067
  eigenvalues    EBANDS =      -251.65200701
  atomic energy  EATOM  =     29633.77399530
  ---------------------------------------------------
  free energy    TOTEN  =       -99.86171677 eV

  energy without entropy =      -99.85551610  energy(sigma->0) =      -99.85964988


--------------------------------------------------------------------------------------------------------




----------------------------------------- Iteration    1(   2)  ---------------------------------------


    POTLOK:  VPU time    0.45: CPU time    0.45
    SETDIJ:  VPU time    0.59: CPU time    0.59
    EDDIAG:  VPU time   33.82: CPU time   33.81
  RMM-DIIS:  VPU time  193.78: CPU time  193.76
    ORTHCH:  VPU time    6.54: CPU time    6.54
    DOS   :  VPU time    0.00: CPU time   -0.00
    CHARGE:  VPU time   11.86: CPU time   11.86
    MIXING:  VPU time    0.01: CPU time    0.01
    ------------------------------------------
      LOOP:  VPU time  247.12: CPU time  248.28

 eigenvalue-minimisations  : 17979
 total energy-change (2. order) : 0.2629093E+01  (-0.1333753E+01)
 number of electron  352.0000010 magnetization 
 augmentation part   131.0742596 magnetization 

 Broyden mixing:
  rms(total) = 0.12694E+00    rms(broyden)= 0.12694E+00
  rms(prec ) = 0.17977E+00
  weight for this iteration     100.00

 eigenvalues of (default mixing * dielectric matrix)
  average eigenvalue GAMMA=   1.0757
  1.0757

 Free energy of the ion-electron system (eV)
  ---------------------------------------------------
  alpha Z        PSCENC =      2706.08790652
  Ewald energy   TEWEN  =    -28672.48839723
  -1/2 Hartree   DENC   =     -4755.12957691
  -V(xc)+E(xc)   XCENC  =       450.59804607
  PAW double counting   =     22998.09398153   -22299.50601282
  entropy T*S    EENTRO =        -0.00637615
  eigenvalues    EBANDS =      -158.65618996
  atomic energy  EATOM  =     29633.77399530
  ---------------------------------------------------
  free energy    TOTEN  =       -97.23262366 eV

  energy without entropy =      -97.22624751  energy(sigma->0) =      -97.23049827


--------------------------------------------------------------------------------------------------------




----------------------------------------- Iteration    1(   3)  ---------------------------------------


    POTLOK:  VPU time    0.42: CPU time    0.42
    SETDIJ:  VPU time    0.54: CPU time    0.54
    EDDIAG:  VPU time   31.99: CPU time   31.98
  RMM-DIIS:  VPU time  227.93: CPU time  227.88
    ORTHCH:  VPU time    7.12: CPU time    7.12
    DOS   :  VPU time    0.00: CPU time   -0.00
    CHARGE:  VPU time   17.23: CPU time   17.22
    MIXING:  VPU time    0.01: CPU time    0.01
    ------------------------------------------
      LOOP:  VPU time  285.32: CPU time  285.26

 eigenvalue-minimisations  : 18898
 total energy-change (2. order) :-0.4187938E-01  (-0.9375042E-01)
 number of electron  352.0000010 magnetization 
 augmentation part   130.6247740 magnetization 

 Broyden mixing:
  rms(total) = 0.79950E-01    rms(broyden)= 0.79949E-01
  rms(prec ) = 0.87375E-01
  weight for this iteration     100.00

 eigenvalues of (default mixing * dielectric matrix)
  average eigenvalue GAMMA=   1.5843
  1.2425  1.9262

 Free energy of the ion-electron system (eV)
  ---------------------------------------------------
  alpha Z        PSCENC =      2706.08790652
  Ewald energy   TEWEN  =    -28672.48839723
  -1/2 Hartree   DENC   =     -4773.46214459
  -V(xc)+E(xc)   XCENC  =       451.43143796
  PAW double counting   =     23214.32945598   -22515.14888068
  entropy T*S    EENTRO =        -0.00660898
  eigenvalues    EBANDS =      -141.79126730
  atomic energy  EATOM  =     29633.77399530
  ---------------------------------------------------
  free energy    TOTEN  =       -97.27450304 eV

  energy without entropy =      -97.26789406  energy(sigma->0) =      -97.27230005


--------------------------------------------------------------------------------------------------------




----------------------------------------- Iteration    1(   4)  ---------------------------------------


    POTLOK:  VPU time    0.49: CPU time    0.50
    SETDIJ:  VPU time    0.65: CPU time    0.65
    EDDIAG:  VPU time   39.66: CPU time   39.65
  RMM-DIIS:  VPU time  205.32: CPU time  205.28
    ORTHCH:  VPU time    6.62: CPU time    6.61
    DOS   :  VPU time    0.00: CPU time   -0.00
    CHARGE:  VPU time   13.57: CPU time   13.57
    MIXING:  VPU time    0.01: CPU time    0.01
    ------------------------------------------
      LOOP:  VPU time  266.39: CPU time  266.34

 eigenvalue-minimisations  : 18594
 total energy-change (2. order) :-0.2529064E-02  (-0.3602018E-02)
 number of electron  352.0000010 magnetization 
 augmentation part   130.7015946 magnetization 

 Broyden mixing:
  rms(total) = 0.23215E-01    rms(broyden)= 0.23215E-01
  rms(prec ) = 0.28381E-01
  weight for this iteration     100.00

 eigenvalues of (default mixing * dielectric matrix)
  average eigenvalue GAMMA=   1.5636
  1.0543  1.0543  2.5820

 Free energy of the ion-electron system (eV)
  ---------------------------------------------------
  alpha Z        PSCENC =      2706.08790652
  Ewald energy   TEWEN  =    -28672.48839723
  -1/2 Hartree   DENC   =     -4768.89487965
  -V(xc)+E(xc)   XCENC  =       451.28514835
  PAW double counting   =     23349.68666114   -22650.53896008
  entropy T*S    EENTRO =        -0.00652480
  eigenvalues    EBANDS =      -146.18198165
  atomic energy  EATOM  =     29633.77399530
  ---------------------------------------------------
  free energy    TOTEN  =       -97.27703210 eV

  energy without entropy =      -97.27050731  energy(sigma->0) =      -97.27485717


--------------------------------------------------------------------------------------------------------




----------------------------------------- Iteration    1(   5)  ---------------------------------------


    POTLOK:  VPU time    0.44: CPU time    0.44
    SETDIJ:  VPU time    0.58: CPU time    0.59
    EDDIAG:  VPU time   33.75: CPU time   33.75
  RMM-DIIS:  VPU time  200.89: CPU time  200.87
    ORTHCH:  VPU time    6.72: CPU time    6.72
    DOS   :  VPU time    0.00: CPU time   -0.00
    CHARGE:  VPU time   13.59: CPU time   13.58
    MIXING:  VPU time    0.01: CPU time    0.01
    ------------------------------------------
      LOOP:  VPU time  256.06: CPU time  256.03

 eigenvalue-minimisations  : 18941
 total energy-change (2. order) :-0.3579595E-03  (-0.2476602E-03)
 number of electron  352.0000010 magnetization 
 augmentation part   130.6921872 magnetization 

 Broyden mixing:
  rms(total) = 0.66032E-02    rms(broyden)= 0.66032E-02
  rms(prec ) = 0.10024E-01
  weight for this iteration     100.00

 eigenvalues of (default mixing * dielectric matrix)
  average eigenvalue GAMMA=   1.4758
  2.5634  1.2435  1.2435  0.8527

 Free energy of the ion-electron system (eV)
  ---------------------------------------------------
  alpha Z        PSCENC =      2706.08790652
  Ewald energy   TEWEN  =    -28672.48839723
  -1/2 Hartree   DENC   =     -4770.34393923
  -V(xc)+E(xc)   XCENC  =       451.37304919
  PAW double counting   =     23423.56861788   -22724.29845101
  entropy T*S    EENTRO =        -0.00652640
  eigenvalues    EBANDS =      -144.94364508
  atomic energy  EATOM  =     29633.77399530
  ---------------------------------------------------
  free energy    TOTEN  =       -97.27739006 eV

  energy without entropy =      -97.27086367  energy(sigma->0) =      -97.27521460


--------------------------------------------------------------------------------------------------------




----------------------------------------- Iteration    1(   6)  ---------------------------------------


    POTLOK:  VPU time    0.45: CPU time    0.45
    SETDIJ:  VPU time    0.58: CPU time    0.58
    EDDIAG:  VPU time   33.96: CPU time   33.96
  RMM-DIIS:  VPU time  194.57: CPU time  194.54
    ORTHCH:  VPU time    6.66: CPU time    6.65
    DOS   :  VPU time    0.00: CPU time   -0.00
    CHARGE:  VPU time   13.56: CPU time   13.56
    MIXING:  VPU time    0.01: CPU time    0.01
    ------------------------------------------
      LOOP:  VPU time  249.86: CPU time  249.82

 eigenvalue-minimisations  : 18245
 total energy-change (2. order) : 0.7704544E-04  (-0.1284739E-03)
 number of electron  352.0000010 magnetization 
 augmentation part   130.6618324 magnetization 

 Broyden mixing:
  rms(total) = 0.24202E-02    rms(broyden)= 0.24201E-02
  rms(prec ) = 0.33404E-02
  weight for this iteration     100.00

 eigenvalues of (default mixing * dielectric matrix)
  average eigenvalue GAMMA=   1.5676
  2.5641  2.1948  1.1180  1.1180  0.8429

 Free energy of the ion-electron system (eV)
  ---------------------------------------------------
  alpha Z        PSCENC =      2706.08790652
  Ewald energy   TEWEN  =    -28672.48839723
  -1/2 Hartree   DENC   =     -4771.92238542
  -V(xc)+E(xc)   XCENC  =       451.44430827
  PAW double counting   =     23431.24735966   -22731.92675630
  entropy T*S    EENTRO =        -0.00654300
  eigenvalues    EBANDS =      -143.48680080
  atomic energy  EATOM  =     29633.77399530
  ---------------------------------------------------
  free energy    TOTEN  =       -97.27731302 eV

  energy without entropy =      -97.27077002  energy(sigma->0) =      -97.27513202


--------------------------------------------------------------------------------------------------------




----------------------------------------- Iteration    1(   7)  ---------------------------------------


    POTLOK:  VPU time    0.45: CPU time    0.45
    SETDIJ:  VPU time    0.58: CPU time    0.58
    EDDIAG:  VPU time   34.06: CPU time   34.06
  RMM-DIIS:  VPU time  197.77: CPU time  197.72
    ORTHCH:  VPU time    6.64: CPU time    6.64
    DOS   :  VPU time    0.00: CPU time   -0.00
    CHARGE:  VPU time   13.47: CPU time   13.47
    MIXING:  VPU time    0.01: CPU time    0.01
    ------------------------------------------
      LOOP:  VPU time  253.06: CPU time  252.99

 eigenvalue-minimisations  : 18628
 total energy-change (2. order) : 0.1539351E-04  (-0.9791799E-05)
 number of electron  352.0000010 magnetization 
 augmentation part   130.6673128 magnetization 

 Broyden mixing:
  rms(total) = 0.46584E-03    rms(broyden)= 0.46583E-03
  rms(prec ) = 0.64778E-03
  weight for this iteration     100.00

 eigenvalues of (default mixing * dielectric matrix)
  average eigenvalue GAMMA=   1.5326
  2.5539  1.8841  1.7240  1.0950  1.0950  0.8436

 Free energy of the ion-electron system (eV)
  ---------------------------------------------------
  alpha Z        PSCENC =      2706.08790652
  Ewald energy   TEWEN  =    -28672.48839723
  -1/2 Hartree   DENC   =     -4771.62136665
  -V(xc)+E(xc)   XCENC  =       451.43337739
  PAW double counting   =     23428.95360875   -22729.64480303
  entropy T*S    EENTRO =        -0.00653732
  eigenvalues    EBANDS =      -143.76508134
  atomic energy  EATOM  =     29633.77399530
  ---------------------------------------------------
  free energy    TOTEN  =       -97.27729762 eV

  energy without entropy =      -97.27076030  energy(sigma->0) =      -97.27511852


--------------------------------------------------------------------------------------------------------




----------------------------------------- Iteration    1(   8)  ---------------------------------------


    POTLOK:  VPU time    0.45: CPU time    0.45
    SETDIJ:  VPU time    0.58: CPU time    0.58
    EDDIAG:  VPU time   34.01: CPU time   34.01
  RMM-DIIS:  VPU time  120.48: CPU time  120.45
    ORTHCH:  VPU time    6.65: CPU time    6.65
    DOS   :  VPU time    0.00: CPU time   -0.00
    ------------------------------------------
      LOOP:  VPU time  162.24: CPU time  162.21

 eigenvalue-minimisations  : 10409
 total energy-change (2. order) : 0.1240362E-05  (-0.8484206E-06)
 number of electron  352.0000010 magnetization 
 augmentation part   130.6673128 magnetization 

 Free energy of the ion-electron system (eV)
  ---------------------------------------------------
  alpha Z        PSCENC =      2706.08790652
  Ewald energy   TEWEN  =    -28672.48839723
  -1/2 Hartree   DENC   =     -4771.53888598
  -V(xc)+E(xc)   XCENC  =       451.43024975
  PAW double counting   =     23428.10230727   -22728.79887655
  entropy T*S    EENTRO =        -0.00653591
  eigenvalues    EBANDS =      -143.83905955
  atomic energy  EATOM  =     29633.77399530
  ---------------------------------------------------
  free energy    TOTEN  =       -97.27729638 eV

  energy without entropy =      -97.27076047  energy(sigma->0) =      -97.27511775


--------------------------------------------------------------------------------------------------------




 average (electrostatic) potential at core
  the test charge radii are     1.2098
  (the norm of the test charge is              1.0000)
       1 -47.6641       2 -47.6664       3 -47.6664       4 -47.6641       5 -47.6640
       6 -47.6640       7 -47.6638       8 -47.6664       9 -47.6664      10 -47.6641
      11 -47.6640      12 -47.6640      13 -47.6640      14 -47.6640      15 -47.6616
      16 -47.6616      17 -47.6638      18 -47.6640      19 -47.6640      20 -47.6641
      21 -47.6640      22 -47.6640      23 -47.6616      24 -47.6616      25 -47.6638
      26 -47.6640      27 -47.6640      28 -47.6640      29 -47.6640      30 -47.6638
      31 -47.6640      32 -47.6640
 
 
 
 E-fermi :   2.8366     XC(G=0): -11.1996     alpha+bet : -7.8361
   add alpha+bet to get absolut eigen values

 k-point   1 :       0.0625    0.0625    0.0625
  band No.  band energies     occupation 
      1      -4.5429      2.00000
      2      -2.7678      2.00000
      3      -2.7651      2.00000
      4      -2.7625      2.00000
      5      -2.4759      2.00000
      6      -2.4569      2.00000
      7      -2.4568      2.00000
      8      -2.4567      2.00000
      9      -2.4329      2.00000
     10      -2.4306      2.00000
     11      -2.4283      2.00000
     12      -2.2165      2.00000
     13      -2.2165      2.00000
     14      -2.2164      2.00000
     15      -2.0324      2.00000
     16      -2.0323      2.00000
     17      -2.0323      2.00000
     18      -1.7559      2.00000
     19      -1.7541      2.00000
     20      -1.7523      2.00000
     21      -1.6102      2.00000
     22      -1.6097      2.00000
     23      -1.6075      2.00000
     24      -1.6075      2.00000
     25      -1.6054      2.00000
     26      -1.6050      2.00000
     27      -1.5474      2.00000
     28      -1.5455      2.00000
     29      -1.5436      2.00000
     30      -1.4880      2.00000
     31      -1.4868      2.00000
     32      -1.4856      2.00000
     33      -1.4725      2.00000
     34      -1.4697      2.00000
     35      -1.4695      2.00000
     36      -1.4695      2.00000
     37      -1.4693      2.00000
     38      -1.4666      2.00000
     39      -1.3611      2.00000
     40      -1.3599      2.00000
     41      -1.3586      2.00000
     42      -1.0964      2.00000
     43      -1.0963      2.00000
     44      -1.0951      2.00000
     45      -1.0950      2.00000
     46      -1.0937      2.00000
     47      -1.0937      2.00000
     48      -1.0352      2.00000
     49      -1.0337      2.00000
     50      -1.0324      2.00000
     51      -1.0167      2.00000
     52      -1.0159      2.00000
     53      -1.0147      2.00000
     54      -1.0146      2.00000
     55      -1.0136      2.00000
     56      -1.0126      2.00000
     57      -0.9624      2.00000
     58      -0.9611      2.00000
     59      -0.9597      2.00000
     60      -0.8374      2.00000
     61      -0.8374      2.00000
     62      -0.8359      2.00000
     63      -0.8359      2.00000
     64      -0.8345      2.00000
     65      -0.8344      2.00000
     66      -0.7725      2.00000
     67      -0.7698      2.00000
     68      -0.7695      2.00000
     69      -0.7694      2.00000
     70      -0.7691      2.00000
     71      -0.7671      2.00000
     72      -0.7541      2.00000
     73      -0.7537      2.00000
     74      -0.7537      2.00000
     75      -0.7524      2.00000
     76      -0.7517      2.00000
     77      -0.7504      2.00000
     78      -0.7395      2.00000
     79      -0.7394      2.00000
     80      -0.7385      2.00000
     81      -0.7307      2.00000
     82      -0.7306      2.00000
     83      -0.7305      2.00000
     84      -0.7242      2.00000
     85      -0.7241      2.00000
     86      -0.7062      2.00000
     87      -0.7051      2.00000
     88      -0.7035      2.00000
     89      -0.2834      2.00000
     90      -0.2827      2.00000
     91      -0.2820      2.00000
     92      -0.2037      2.00000
     93      -0.2020      2.00000
     94      -0.2002      2.00000
     95      -0.1656      2.00000
     96      -0.1648      2.00000
     97      -0.1644      2.00000
     98      -0.1088      2.00000
     99      -0.1080      2.00000
    100      -0.1069      2.00000
    101      -0.1066      2.00000
    102      -0.1057      2.00000
    103      -0.1054      2.00000
    104      -0.1053      2.00000
    105      -0.1040      2.00000
    106      -0.1029      2.00000
    107      -0.0318      2.00000
    108      -0.0306      2.00000
    109      -0.0294      2.00000
    110       0.0317      2.00000
    111       0.0336      2.00000
    112       0.0355      2.00000
    113       0.1421      2.00000
    114       0.1440      2.00000
    115       0.1456      2.00000
    116       0.1598      2.00000
    117       0.1615      2.00000
    118       0.1631      2.00000
    119       0.1876      2.00000
    120       0.1899      2.00000
    121       0.1899      2.00000
    122       0.1901      2.00000
    123       0.1902      2.00000
    124       0.1924      2.00000
    125       0.2124      2.00000
    126       0.2124      2.00000
    127       0.2235      2.00000
    128       0.2248      2.00000
    129       0.2257      2.00000
    130       0.2661      2.00000
    131       0.2674      2.00000
    132       0.2686      2.00000
    133       0.2687      2.00000
    134       0.2699      2.00000
    135       0.2713      2.00000
    136       0.3420      2.00000
    137       0.3429      2.00000
    138       0.3438      2.00000
    139       0.5366      2.00000
    140       0.5375      2.00000
    141       0.5384      2.00000
    142       0.6114      2.00000
    143       0.6118      2.00000
    144       0.6123      2.00000
    145       0.8987      2.00000
    146       0.8991      2.00000
    147       0.8995      2.00000
    148       0.9239      2.00000
    149       0.9239      2.00000
    150       0.9240      2.00000
    151       0.9546      2.00000
    152       0.9546      2.00000
    153       0.9702      2.00000
    154       0.9702      2.00000
    155       0.9703      2.00000
    156       1.1249      2.00000
    157       1.1249      2.00000
    158       1.1250      2.00000
    159       1.1544      2.00000
    160       1.1545      2.00000
    161       1.1547      2.00000
    162       1.1547      2.00000
    163       1.1547      2.00000
    164       1.1550      2.00000
    165       1.1574      2.00000
    166       1.1575      2.00000
    167       1.1577      2.00000
    168       1.9769      2.00000
    169       1.9779      2.00000
    170       1.9789      2.00000
    171       2.3479      2.00297
    172       2.3483      2.00300
    173       2.3496      2.00308
    174       2.3496      2.00308
    175       2.3509      2.00317
    176       2.3513      2.00320
    177       2.6263      2.05933
    178       2.7428      1.70478
    179       2.7438      1.69922
    180       2.7447      1.69389
    181       3.0083     -0.00719
    182       3.0087     -0.00790
    183       3.0090     -0.00857
    184       4.4577     -0.00000
    185       4.4585     -0.00000
    186       4.4594     -0.00000
    187       4.7885     -0.00000
    188       4.7891     -0.00000
    189       4.7898     -0.00000
    190       5.1322     -0.00000
    191       6.2263     -0.00000
    192       6.2268     -0.00000
    193       6.2271     -0.00000
    194       6.2272     -0.00000
    195       6.2275     -0.00000
    196       6.2281     -0.00000
    197       6.9526     -0.00000
    198       6.9533     -0.00000
    199       6.9540     -0.00000
    200       8.0825     -0.00000
    201       8.0828     -0.00000
    202       8.0851     -0.00000
    203       8.0851     -0.00000
    204       8.0872     -0.00000
    205       8.0876     -0.00000
    206       8.7540      0.00000
    207       8.7551      0.00000
    208       8.7571      0.00000
    209       8.7576      0.00000
    210       8.7598      0.00000
    211       8.7608      0.00000
    212       9.4409      0.00000

 k-point   2 :       0.1875    0.0625    0.0625
  band No.  band energies     occupation 
      1      -4.4707      2.00000
      2      -3.1424      2.00000
      3      -2.7135      2.00000
      4      -2.7135      2.00000
      5      -2.4587      2.00000
      6      -2.4203      2.00000
      7      -2.4203      2.00000
      8      -2.4018      2.00000
      9      -2.3812      2.00000
     10      -2.3812      2.00000
     11      -2.2011      2.00000
     12      -2.1960      2.00000
     13      -2.1747      2.00000
     14      -2.1746      2.00000
     15      -2.0102      2.00000
     16      -1.9975      2.00000
     17      -1.9974      2.00000
     18      -1.9231      2.00000
     19      -1.9231      2.00000
     20      -1.8847      2.00000
     21      -1.7564      2.00000
     22      -1.7564      2.00000
     23      -1.7030      2.00000
     24      -1.7029      2.00000
     25      -1.6839      2.00000
     26      -1.6084      2.00000
     27      -1.5544      2.00000
     28      -1.5543      2.00000
     29      -1.5005      2.00000
     30      -1.5005      2.00000
     31      -1.4790      2.00000
     32      -1.4790      2.00000
     33      -1.4647      2.00000
     34      -1.4647      2.00000
     35      -1.4509      2.00000
     36      -1.4509      2.00000
     37      -1.4382      2.00000
     38      -1.4382      2.00000
     39      -1.3414      2.00000
     40      -1.3413      2.00000
     41      -1.3213      2.00000
     42      -1.3213      2.00000
     43      -1.2323      2.00000
     44      -1.1101      2.00000
     45      -1.1100      2.00000
     46      -1.0955      2.00000
     47      -1.0951      2.00000
     48      -1.0903      2.00000
     49      -1.0901      2.00000
     50      -1.0736      2.00000
     51      -1.0735      2.00000
     52      -1.0203      2.00000
     53      -1.0202      2.00000
     54      -0.9519      2.00000
     55      -0.9395      2.00000
     56      -0.9394      2.00000
     57      -0.9367      2.00000
     58      -0.9367      2.00000
     59      -0.9138      2.00000
     60      -0.8766      2.00000
     61      -0.8766      2.00000
     62      -0.8697      2.00000
     63      -0.8697      2.00000
     64      -0.8306      2.00000
     65      -0.8305      2.00000
     66      -0.8089      2.00000
     67      -0.8089      2.00000
     68      -0.7837      2.00000
     69      -0.7837      2.00000
     70      -0.7791      2.00000
     71      -0.7670      2.00000
     72      -0.7670      2.00000
     73      -0.7643      2.00000
     74      -0.7373      2.00000
     75      -0.7209      2.00000
     76      -0.7013      2.00000
     77      -0.7013      2.00000
     78      -0.6996      2.00000
     79      -0.6976      2.00000
     80      -0.6947      2.00000
     81      -0.6921      2.00000
     82      -0.6920      2.00000
     83      -0.6340      2.00000
     84      -0.6340      2.00000
     85      -0.6148      2.00000
     86      -0.5666      2.00000
     87      -0.5507      2.00000
     88      -0.5507      2.00000
     89      -0.3887      2.00000
     90      -0.3887      2.00000
     91      -0.3403      2.00000
     92      -0.3403      2.00000
     93      -0.2856      2.00000
     94      -0.2731      2.00000
     95      -0.2090      2.00000
     96      -0.2089      2.00000
     97      -0.1987      2.00000
     98      -0.1929      2.00000
     99      -0.1477      2.00000
    100      -0.1477      2.00000
    101      -0.1105      2.00000
    102      -0.0462      2.00000
    103      -0.0460      2.00000
    104      -0.0433      2.00000
    105      -0.0433      2.00000
    106      -0.0349      2.00000
    107      -0.0348      2.00000
    108      -0.0002      2.00000
    109      -0.0002      2.00000
    110       0.0246      2.00000
    111       0.0931      2.00000
    112       0.0932      2.00000
    113       0.1258      2.00000
    114       0.1259      2.00000
    115       0.1314      2.00000
    116       0.1314      2.00000
    117       0.1832      2.00000
    118       0.1935      2.00000
    119       0.1936      2.00000
    120       0.2051      2.00000
    121       0.2052      2.00000
    122       0.2257      2.00000
    123       0.2291      2.00000
    124       0.2292      2.00000
    125       0.2727      2.00000
    126       0.2728      2.00000
    127       0.2824      2.00000
    128       0.3250      2.00000
    129       0.3333      2.00000
    130       0.3333      2.00000
    131       0.3822      2.00000
    132       0.3822      2.00000
    133       0.4047      2.00000
    134       0.4047      2.00000
    135       0.4404      2.00000
    136       0.4490      2.00000
    137       0.4491      2.00000
    138       0.4559      2.00000
    139       0.4661      2.00000
    140       0.5758      2.00000
    141       0.5758      2.00000
    142       0.6736      2.00000
    143       0.6736      2.00000
    144       0.6868      2.00000
    145       0.7482      2.00000
    146       0.7655      2.00000
    147       0.7656      2.00000
    148       0.8743      2.00000
    149       0.8796      2.00000
    150       0.8796      2.00000
    151       0.9035      2.00000
    152       0.9054      2.00000
    153       0.9496      2.00000
    154       0.9512      2.00000
    155       0.9512      2.00000
    156       0.9813      2.00000
    157       0.9814      2.00000
    158       1.0711      2.00000
    159       1.1005      2.00000
    160       1.1005      2.00000
    161       1.1013      2.00000
    162       1.1013      2.00000
    163       1.1113      2.00000
    164       1.1535      2.00000
    165       1.1546      2.00000
    166       1.1548      2.00000
    167       1.1559      2.00000
    168       1.6549      2.00000
    169       1.6550      2.00000
    170       1.9776      2.00000
    171       1.9973      2.00000
    172       1.9973      2.00000
    173       2.2936      2.00084
    174       2.3654      2.00431
    175       2.3654      2.00431
    176       2.7754      1.49140
    177       2.7855      1.41661
    178       2.7856      1.41599
    179       2.8555      0.84067
    180       2.8555      0.84033
    181       3.1922     -0.03057
    182       3.1923     -0.03053
    183       3.2364     -0.01604
    184       3.7563     -0.00000
    185       4.6586     -0.00000
    186       4.6586     -0.00000
    187       4.8005     -0.00000
    188       5.1620     -0.00000
    189       5.1620     -0.00000
    190       5.6650     -0.00000
    191       5.8101     -0.00000
    192       5.8101     -0.00000
    193       5.9532     -0.00000
    194       5.9532     -0.00000
    195       6.2221     -0.00000
    196       6.2221     -0.00000
    197       6.9220     -0.00000
    198       6.9220     -0.00000
    199       7.5223     -0.00000
    200       7.5224     -0.00000
    201       7.7859     -0.00000
    202       8.0270     -0.00000
    203       8.0270     -0.00000
    204       8.1238     -0.00000
    205       8.1239     -0.00000
    206       8.5690      0.00000
    207       8.8524      0.00000
    208       8.8707      0.00000
    209       9.0219      0.00000
    210       9.0484      0.00000
    211       9.0772      0.00000
    212       9.3305      0.00000

 k-point   3 :       0.3125    0.0625    0.0625
  band No.  band energies     occupation 
      1      -4.3274      2.00000
      2      -3.5108      2.00000
      3      -2.6135      2.00000
      4      -2.6134      2.00000
      5      -2.4053      2.00000
      6      -2.3480      2.00000
      7      -2.3480      2.00000
      8      -2.3120      2.00000
      9      -2.2860      2.00000
     10      -2.2859      2.00000
     11      -2.1597      2.00000
     12      -2.1098      2.00000
     13      -2.1095      2.00000
     14      -2.0977      2.00000
     15      -2.0937      2.00000
     16      -2.0932      2.00000
     17      -2.0468      2.00000
     18      -1.9664      2.00000
     19      -1.9365      2.00000
     20      -1.9361      2.00000
     21      -1.9277      2.00000
     22      -1.9273      2.00000
     23      -1.8638      2.00000
     24      -1.8377      2.00000
     25      -1.8377      2.00000
     26      -1.7205      2.00000
     27      -1.6904      2.00000
     28      -1.6904      2.00000
     29      -1.5181      2.00000
     30      -1.5181      2.00000
     31      -1.4615      2.00000
     32      -1.4615      2.00000
     33      -1.4245      2.00000
     34      -1.4245      2.00000
     35      -1.4210      2.00000
     36      -1.4210      2.00000
     37      -1.3779      2.00000
     38      -1.3779      2.00000
     39      -1.3627      2.00000
     40      -1.3627      2.00000
     41      -1.3052      2.00000
     42      -1.3052      2.00000
     43      -1.1827      2.00000
     44      -1.1827      2.00000
     45      -1.1302      2.00000
     46      -1.1300      2.00000
     47      -1.1236      2.00000
     48      -1.1236      2.00000
     49      -1.1094      2.00000
     50      -1.1042      2.00000
     51      -1.1040      2.00000
     52      -1.0706      2.00000
     53      -1.0706      2.00000
     54      -0.9766      2.00000
     55      -0.9765      2.00000
     56      -0.9501      2.00000
     57      -0.9500      2.00000
     58      -0.9372      2.00000
     59      -0.9372      2.00000
     60      -0.9271      2.00000
     61      -0.8884      2.00000
     62      -0.8884      2.00000
     63      -0.8328      2.00000
     64      -0.8236      2.00000
     65      -0.8233      2.00000
     66      -0.8187      2.00000
     67      -0.8136      2.00000
     68      -0.8106      2.00000
     69      -0.8104      2.00000
     70      -0.8070      2.00000
     71      -0.8068      2.00000
     72      -0.7893      2.00000
     73      -0.7893      2.00000
     74      -0.7464      2.00000
     75      -0.6902      2.00000
     76      -0.6901      2.00000
     77      -0.6753      2.00000
     78      -0.6465      2.00000
     79      -0.6464      2.00000
     80      -0.6461      2.00000
     81      -0.6448      2.00000
     82      -0.6326      2.00000
     83      -0.5046      2.00000
     84      -0.5046      2.00000
     85      -0.5001      2.00000
     86      -0.5000      2.00000
     87      -0.4086      2.00000
     88      -0.4086      2.00000
     89      -0.3968      2.00000
     90      -0.3790      2.00000
     91      -0.3508      2.00000
     92      -0.3384      2.00000
     93      -0.3210      2.00000
     94      -0.3042      2.00000
     95      -0.3013      2.00000
     96      -0.3013      2.00000
     97      -0.2421      2.00000
     98      -0.2421      2.00000
     99      -0.1200      2.00000
    100      -0.0971      2.00000
    101      -0.0971      2.00000
    102      -0.0507      2.00000
    103      -0.0506      2.00000
    104       0.0283      2.00000
    105       0.0283      2.00000
    106       0.0564      2.00000
    107       0.0564      2.00000
    108       0.0742      2.00000
    109       0.0742      2.00000
    110       0.1057      2.00000
    111       0.1057      2.00000
    112       0.1152      2.00000
    113       0.1153      2.00000
    114       0.1272      2.00000
    115       0.1802      2.00000
    116       0.1802      2.00000
    117       0.1928      2.00000
    118       0.1929      2.00000
    119       0.2210      2.00000
    120       0.2211      2.00000
    121       0.2275      2.00000
    122       0.2276      2.00000
    123       0.2523      2.00000
    124       0.3500      2.00000
    125       0.3605      2.00000
    126       0.3605      2.00000
    127       0.3993      2.00000
    128       0.4069      2.00000
    129       0.4072      2.00000
    130       0.4301      2.00000
    131       0.5037      2.00000
    132       0.5250      2.00000
    133       0.5251      2.00000
    134       0.5306      2.00000
    135       0.5423      2.00000
    136       0.5423      2.00000
    137       0.5576      2.00000
    138       0.5577      2.00000
    139       0.5694      2.00000
    140       0.5799      2.00000
    141       0.5800      2.00000
    142       0.6402      2.00000
    143       0.6876      2.00000
    144       0.6877      2.00000
    145       0.7117      2.00000
    146       0.7118      2.00000
    147       0.7612      2.00000
    148       0.7921      2.00000
    149       0.8155      2.00000
    150       0.8156      2.00000
    151       0.8199      2.00000
    152       0.8478      2.00000
    153       0.8478      2.00000
    154       0.8654      2.00000
    155       0.8879      2.00000
    156       0.8879      2.00000
    157       0.8943      2.00000
    158       0.9670      2.00000
    159       1.0008      2.00000
    160       1.0008      2.00000
    161       1.0017      2.00000
    162       1.0017      2.00000
    163       1.0269      2.00000
    164       1.1533      2.00000
    165       1.1544      2.00000
    166       1.1545      2.00000
    167       1.1557      2.00000
    168       1.3670      2.00000
    169       1.3670      2.00000
    170       1.6747      2.00000
    171       1.6747      2.00000
    172       1.9788      2.00000
    173       2.0987      2.00000
    174       2.3994      2.00838
    175       2.3994      2.00839
    176       2.6813      1.96746
    177       2.6814      1.96729
    178       2.8404      0.96717
    179       2.9023      0.47535
    180       3.2039     -0.02613
    181       3.2962     -0.00544
    182       3.2962     -0.00544
    183       3.7023     -0.00000
    184       3.7023     -0.00000
    185       5.0085     -0.00000
    186       5.0085     -0.00000
    187       5.1909     -0.00000
    188       5.1910     -0.00000
    189       5.2430     -0.00000
    190       5.4636     -0.00000
    191       5.4636     -0.00000
    192       5.7586     -0.00000
    193       5.7586     -0.00000
    194       6.1497     -0.00000
    195       6.1497     -0.00000
    196       6.3161     -0.00000
    197       6.8690     -0.00000
    198       6.8690     -0.00000
    199       7.0527     -0.00000
    200       7.0527     -0.00000
    201       7.6395     -0.00000
    202       8.0632     -0.00000
    203       8.0633     -0.00000
    204       8.1691     -0.00000
    205       8.1699     -0.00000
    206       8.2537     -0.00000
    207       8.2548     -0.00000
    208       8.7128      0.00000
    209       8.7400      0.00000
    210       8.8360      0.00000
    211       9.0184      0.00000
    212       9.0509      0.00000

 k-point   4 :       0.4375    0.0625    0.0625
  band No.  band energies     occupation 
      1      -4.1158      2.00000
      2      -3.8406      2.00000
      3      -2.4715      2.00000
      4      -2.4714      2.00000
      5      -2.3170      2.00000
      6      -2.2983      2.00000
      7      -2.2982      2.00000
      8      -2.2411      2.00000
      9      -2.2411      2.00000
     10      -2.1963      2.00000
     11      -2.1889      2.00000
     12      -2.1530      2.00000
     13      -2.1529      2.00000
     14      -2.1167      2.00000
     15      -2.1021      2.00000
     16      -2.1020      2.00000
     17      -2.0852      2.00000
     18      -2.0378      2.00000
     19      -1.9964      2.00000
     20      -1.9964      2.00000
     21      -1.9793      2.00000
     22      -1.9792      2.00000
     23      -1.9022      2.00000
     24      -1.8403      2.00000
     25      -1.8403      2.00000
     26      -1.8234      2.00000
     27      -1.8234      2.00000
     28      -1.8194      2.00000
     29      -1.6860      2.00000
     30      -1.6860      2.00000
     31      -1.4284      2.00000
     32      -1.4284      2.00000
     33      -1.4124      2.00000
     34      -1.4124      2.00000
     35      -1.3573      2.00000
     36      -1.3572      2.00000
     37      -1.2963      2.00000
     38      -1.2962      2.00000
     39      -1.2759      2.00000
     40      -1.2759      2.00000
     41      -1.2661      2.00000
     42      -1.2661      2.00000
     43      -1.2545      2.00000
     44      -1.2544      2.00000
     45      -1.1936      2.00000
     46      -1.1936      2.00000
     47      -1.1603      2.00000
     48      -1.1602      2.00000
     49      -1.1454      2.00000
     50      -1.1453      2.00000
     51      -1.1081      2.00000
     52      -1.1081      2.00000
     53      -1.0507      2.00000
     54      -1.0507      2.00000
     55      -0.9960      2.00000
     56      -0.9795      2.00000
     57      -0.9789      2.00000
     58      -0.9774      2.00000
     59      -0.9767      2.00000
     60      -0.8975      2.00000
     61      -0.8925      2.00000
     62      -0.8529      2.00000
     63      -0.8520      2.00000
     64      -0.8519      2.00000
     65      -0.8191      2.00000
     66      -0.8189      2.00000
     67      -0.8179      2.00000
     68      -0.8175      2.00000
     69      -0.8146      2.00000
     70      -0.8140      2.00000
     71      -0.7924      2.00000
     72      -0.7652      2.00000
     73      -0.7477      2.00000
     74      -0.7476      2.00000
     75      -0.6625      2.00000
     76      -0.6624      2.00000
     77      -0.6411      2.00000
     78      -0.6411      2.00000
     79      -0.6041      2.00000
     80      -0.5995      2.00000
     81      -0.5994      2.00000
     82      -0.5675      2.00000
     83      -0.5672      2.00000
     84      -0.5668      2.00000
     85      -0.5664      2.00000
     86      -0.5468      2.00000
     87      -0.5098      2.00000
     88      -0.4683      2.00000
     89      -0.4682      2.00000
     90      -0.4651      2.00000
     91      -0.4637      2.00000
     92      -0.4408      2.00000
     93      -0.0681      2.00000
     94      -0.0680      2.00000
     95      -0.0579      2.00000
     96      -0.0578      2.00000
     97      -0.0532      2.00000
     98      -0.0530      2.00000
     99      -0.0509      2.00000
    100      -0.0398      2.00000
    101      -0.0169      2.00000
    102       0.0496      2.00000
    103       0.0777      2.00000
    104       0.0777      2.00000
    105       0.0819      2.00000
    106       0.0819      2.00000
    107       0.1018      2.00000
    108       0.1018      2.00000
    109       0.1095      2.00000
    110       0.1095      2.00000
    111       0.1311      2.00000
    112       0.1311      2.00000
    113       0.1608      2.00000
    114       0.1608      2.00000
    115       0.1755      2.00000
    116       0.1756      2.00000
    117       0.1818      2.00000
    118       0.1819      2.00000
    119       0.2184      2.00000
    120       0.2184      2.00000
    121       0.2572      2.00000
    122       0.2572      2.00000
    123       0.2660      2.00000
    124       0.2660      2.00000
    125       0.2685      2.00000
    126       0.2910      2.00000
    127       0.3069      2.00000
    128       0.3227      2.00000
    129       0.3227      2.00000
    130       0.3407      2.00000
    131       0.4079      2.00000
    132       0.4079      2.00000
    133       0.5567      2.00000
    134       0.5567      2.00000
    135       0.5760      2.00000
    136       0.6201      2.00000
    137       0.6652      2.00000
    138       0.6653      2.00000
    139       0.6671      2.00000
    140       0.6962      2.00000
    141       0.6970      2.00000
    142       0.6976      2.00000
    143       0.7085      2.00000
    144       0.7160      2.00000
    145       0.7161      2.00000
    146       0.7245      2.00000
    147       0.7246      2.00000
    148       0.7895      2.00000
    149       0.7896      2.00000
    150       0.7921      2.00000
    151       0.8080      2.00000
    152       0.8172      2.00000
    153       0.8372      2.00000
    154       0.8684      2.00000
    155       0.8684      2.00000
    156       0.8699      2.00000
    157       0.8699      2.00000
    158       0.8749      2.00000
    159       0.8749      2.00000
    160       0.9256      2.00000
    161       1.0949      2.00000
    162       1.0949      2.00000
    163       1.1064      2.00000
    164       1.1066      2.00000
    165       1.1532      2.00000
    166       1.1543      2.00000
    167       1.1544      2.00000
    168       1.1556      2.00000
    169       1.3461      2.00000
    170       1.3743      2.00000
    171       1.3743      2.00000
    172       1.9868      2.00000
    173       2.0156      2.00000
    174       2.0759      2.00000
    175       2.4571      2.02195
    176       2.4571      2.02196
    177       2.5475      2.06001
    178       2.5475      2.06002
    179       2.9398      0.24228
    180       3.0699     -0.06979
    181       3.8806     -0.00000
    182       3.8806     -0.00000
    183       4.2695     -0.00000
    184       4.2695     -0.00000
    185       4.5238     -0.00000
    186       4.5238     -0.00000
    187       4.8726     -0.00000
    188       4.8726     -0.00000
    189       5.4422     -0.00000
    190       5.4422     -0.00000
    191       5.8742     -0.00000
    192       5.8743     -0.00000
    193       5.9359     -0.00000
    194       6.4842     -0.00000
    195       6.4842     -0.00000
    196       6.7512     -0.00000
    197       6.8182     -0.00000
    198       6.8182     -0.00000
    199       6.8312     -0.00000
    200       6.8313     -0.00000
    201       7.0556     -0.00000
    202       7.2963     -0.00000
    203       7.2964     -0.00000
    204       7.8651     -0.00000
    205       8.2100     -0.00000
    206       8.2110     -0.00000
    207       8.4314      0.00000
    208       8.4367      0.00000
    209       8.4609      0.00000
    210       8.4791      0.00000
    211       8.7309      0.00000
    212       9.2813      0.00000

 k-point   5 :       0.0625    0.1875    0.0625
  band No.  band energies     occupation 
      1      -4.4707      2.00000
      2      -3.1423      2.00000
      3      -2.7154      2.00000
      4      -2.7117      2.00000
      5      -2.4587      2.00000
      6      -2.4205      2.00000
      7      -2.4202      2.00000
      8      -2.4018      2.00000
      9      -2.3828      2.00000
     10      -2.3795      2.00000
     11      -2.2008      2.00000
     12      -2.1962      2.00000
     13      -2.1747      2.00000
     14      -2.1746      2.00000
     15      -2.0102      2.00000
     16      -1.9975      2.00000
     17      -1.9974      2.00000
     18      -1.9245      2.00000
     19      -1.9216      2.00000
     20      -1.8847      2.00000
     21      -1.7571      2.00000
     22      -1.7557      2.00000
     23      -1.7046      2.00000
     24      -1.7012      2.00000
     25      -1.6839      2.00000
     26      -1.6084      2.00000
     27      -1.5545      2.00000
     28      -1.5542      2.00000
     29      -1.5017      2.00000
     30      -1.4994      2.00000
     31      -1.4800      2.00000
     32      -1.4782      2.00000
     33      -1.4654      2.00000
     34      -1.4638      2.00000
     35      -1.4519      2.00000
     36      -1.4500      2.00000
     37      -1.4392      2.00000
     38      -1.4370      2.00000
     39      -1.3421      2.00000
     40      -1.3404      2.00000
     41      -1.3215      2.00000
     42      -1.3213      2.00000
     43      -1.2323      2.00000
     44      -1.1106      2.00000
     45      -1.1096      2.00000
[...]
    108      -0.0071      2.00000
    109      -0.0070      2.00000
    110      -0.0053      2.00000
    111      -0.0052      2.00000
    112      -0.0038      2.00000
    113      -0.0035      2.00000
    114       0.0031      2.00000
    115       0.0050      2.00000
    116       0.0070      2.00000
    117       0.0748      2.00000
    118       0.0767      2.00000
    119       0.0788      2.00000
    120       0.1238      2.00000
    121       0.1240      2.00000
    122       0.1253      2.00000
    123       0.1253      2.00000
    124       0.1266      2.00000
    125       0.1267      2.00000
    126       0.2106      2.00000
    127       0.2107      2.00000
    128       0.2108      2.00000
    129       0.2522      2.00000
    130       0.2536      2.00000
    131       0.2548      2.00000
    132       0.2620      2.00000
    133       0.2620      2.00000
    134       0.2925      2.00000
    135       0.2943      2.00000
    136       0.2958      2.00000
    137       0.3780      2.00000
    138       0.3795      2.00000
    139       0.3810      2.00000
    140       0.4344      2.00000
    141       0.4344      2.00000
    142       0.4583      2.00000
    143       0.4594      2.00000
    144       0.4605      2.00000
    145       0.9893      2.00000
    146       0.9896      2.00000
    147       0.9900      2.00000
    148       1.0071      2.00000
    149       1.0080      2.00000
    150       1.0081      2.00000
    151       1.0082      2.00000
    152       1.0083      2.00000
    153       1.0084      2.00000
    154       1.0085      2.00000
    155       1.0087      2.00000
    156       1.0088      2.00000
    157       1.0089      2.00000
    158       1.0091      2.00000
    159       1.0098      2.00000
    160       1.0118      2.00000
    161       1.0119      2.00000
    162       1.0123      2.00000
    163       1.0251      2.00000
    164       1.0254      2.00000
    165       1.0257      2.00000
    166       1.0355      2.00000
    167       1.0357      2.00000
    168       1.0359      2.00000
    169       2.8976      0.50891
    170       2.8992      0.49774
    171       2.9007      0.48718
    172       3.2077     -0.02475
    173       3.2100     -0.02396
    174       3.2111     -0.02360
    175       3.2111     -0.02360
    176       3.2121     -0.02325
    177       3.2144     -0.02249
    178       3.4992     -0.00003
    179       3.5003     -0.00003
    180       3.5013     -0.00003
    181       3.6272     -0.00000
    182       3.6284     -0.00000
    183       3.6295     -0.00000
    184       3.9481     -0.00000
    185       3.9507     -0.00000
    186       3.9516     -0.00000
    187       3.9516     -0.00000
    188       3.9525     -0.00000
    189       3.9551     -0.00000
    190       4.2555     -0.00000
    191       4.2568     -0.00000
    192       4.2581     -0.00000
    193       6.6409     -0.00000
    194       6.6419     -0.00000
    195       6.6429     -0.00000
    196       6.9807     -0.00000
    197       6.9821     -0.00000
    198       6.9834     -0.00000
    199       7.3218     -0.00000
    200       7.3224     -0.00000
    201       7.3238     -0.00000
    202       7.3243     -0.00000
    203       7.3253     -0.00000
    204       7.3272     -0.00000
    205       7.7119     -0.00000
    206       7.7130     -0.00000
    207       7.7141     -0.00000
    208       7.7157     -0.00000
    209       7.7467     -0.00000
    210       7.8002     -0.00000
    211       7.9681     -0.00000
    212       8.3868      0.00000


--------------------------------------------------------------------------------------------------------


 soft charge-density along one line, spin component           1
         0         1         2         3         4         5         6         7         8         9
 total charge-density along one line
 
 pseudopotential strength for first ion, spin component:           1
-10.727   0.000   0.000   0.000   0.000   0.029  -0.000   0.000
  0.000 -10.727   0.000   0.000  -0.000  -0.000   0.029  -0.000
  0.000   0.000 -10.716   0.000  -0.000   0.000  -0.000   0.028
  0.000   0.000   0.000 -10.727   0.000  -0.000  -0.000  -0.000
  0.000  -0.000  -0.000   0.000 -10.716  -0.000   0.000   0.000
  0.029  -0.000   0.000  -0.000  -0.000   0.266   0.000   0.000
 -0.000   0.029  -0.000  -0.000   0.000   0.000   0.266   0.000
  0.000  -0.000   0.028  -0.000   0.000   0.000   0.000   0.266
 -0.000  -0.000  -0.000   0.029  -0.000   0.000   0.000   0.000
 -0.000   0.000   0.000  -0.000   0.028   0.000  -0.000  -0.000
 -0.000  -0.000   0.000  -0.000  -0.000   0.000   0.000  -0.000
  0.000   0.000  -0.000   0.000   0.000  -0.000  -0.000   0.000
  0.000  -0.000   0.000   0.000   0.000  -0.000   0.000  -0.000
  0.000  -0.000  -0.000   0.000   0.000  -0.000   0.000   0.000
 -0.000   0.000  -0.000  -0.000   0.000   0.000  -0.000   0.000
 -0.000   0.000  -0.000  -0.000  -0.000   0.000  -0.000   0.000
 -0.000   0.000   0.000  -0.000  -0.000   0.000  -0.000  -0.000
  0.000  -0.000   0.000   0.000  -0.000  -0.000   0.000  -0.000
 total augmentation occupancy for first ion, spin component:           1
  1.913   0.000  -0.002  -0.001  -0.001  -0.076  -0.000   0.000   0.000   0.001   0.006   0.000   0.000  -0.000   0.000   0.000
  0.000   1.918  -0.001  -0.001  -0.002  -0.000  -0.081   0.002   0.001   0.000   0.004  -0.000   0.000   0.000   0.000   0.000
 -0.002  -0.001   1.962  -0.000  -0.003   0.000   0.002  -0.111   0.001   0.002   0.012   0.002   0.000  -0.000   0.000   0.000
 -0.001  -0.001  -0.000   1.923   0.001   0.000   0.001   0.001  -0.085   0.001   0.003  -0.001  -0.000   0.000   0.000   0.000
 -0.001  -0.002  -0.003   0.001   1.952   0.001   0.000   0.002   0.001  -0.104   0.007   0.001  -0.000  -0.000   0.000   0.000
 -0.076  -0.000   0.000   0.000   0.001   0.094   0.000   0.001  -0.000  -0.000  -0.001   0.001  -0.000   0.000  -0.000  -0.000
 -0.000  -0.081   0.002   0.001   0.000   0.000   0.097  -0.002  -0.000   0.001  -0.000   0.001  -0.000  -0.000  -0.000  -0.000
  0.000   0.002  -0.111   0.001   0.002   0.001  -0.002   0.077  -0.001  -0.001  -0.007  -0.001  -0.000   0.000  -0.000   0.000
  0.000   0.001   0.001  -0.085   0.001  -0.000  -0.000  -0.001   0.100  -0.002   0.001   0.002   0.000  -0.000   0.000  -0.000
  0.001   0.000   0.002   0.001  -0.104  -0.000   0.001  -0.001  -0.002   0.074  -0.004  -0.000  -0.000   0.000  -0.000  -0.000
  0.006   0.004   0.012   0.003   0.007  -0.001  -0.000  -0.007   0.001  -0.004   0.973  -0.244   0.000  -0.000   0.000  -0.000
  0.000  -0.000   0.002  -0.001   0.001   0.001   0.001  -0.001   0.002  -0.000  -0.244   0.127  -0.000  -0.000   0.000   0.000
  0.000   0.000   0.000  -0.000  -0.000  -0.000  -0.000  -0.000   0.000  -0.000   0.000  -0.000   0.088   0.001   0.002  -0.006
 -0.000   0.000  -0.000   0.000  -0.000   0.000  -0.000   0.000  -0.000   0.000  -0.000  -0.000   0.001   0.089  -0.000  -0.000
  0.000   0.000   0.000   0.000   0.000  -0.000  -0.000  -0.000   0.000  -0.000   0.000   0.000   0.002  -0.000   0.088  -0.000
  0.000   0.000   0.000   0.000   0.000  -0.000  -0.000   0.000  -0.000  -0.000  -0.000   0.000  -0.006  -0.000  -0.000   0.000
  0.000   0.000   0.000   0.000   0.000  -0.000  -0.000  -0.000  -0.000  -0.000  -0.000  -0.000  -0.000  -0.006  -0.000   0.000
 -0.000  -0.000  -0.000   0.000   0.000   0.000   0.000   0.000   0.000  -0.000   0.000  -0.000  -0.000  -0.000  -0.006   0.000


------------------------ aborting loop because EDIFF is reached ----------------------------------------




--------------------------------------------------------------------------------------------------------


    CHARGE:  VPU time   13.67: CPU time   13.66
    FORLOC:  VPU time    0.10: CPU time    0.11
    FORNL :  VPU time  144.60: CPU time  144.56
    STRESS:  VPU time  227.27: CPU time  227.21
    FORCOR:  VPU time    0.50: CPU time    0.50
    FORHAR:  VPU time    0.18: CPU time    0.18
    MIXING:  VPU time    0.01: CPU time    0.01


--------------------------------------------------------------------------------------------------------



  FREE ENERGIE OF THE ION-ELECTRON SYSTEM (eV)
  ---------------------------------------------------
  free  energy   TOTEN  =       -97.277296 eV

  energy  without entropy=      -97.270760  energy(sigma->0) =      -97.275118
 

  FORCE on cell =-STRESS in cart. coord.  units (eV/reduce length):
  Direction    X        Y        Z        XY       YZ       ZX
  --------------------------------------------------------------------------------------
  Alpha Z   2706.09   2706.09   2706.09
  Ewald    -9557.61  -9557.50  -9557.50     -0.00     -0.00     -0.00
  Hartree   1590.52   1590.60   1590.60     -0.00     -0.00     -0.00
  E(xc)    -1571.27  -1571.27  -1571.27     -0.00     -0.00     -0.00
  Local     2223.22   2223.01   2223.01      0.00      0.00      0.00
  n-local  -1712.64  -1718.46  -1706.81      3.88      2.59      1.31
  augment   1377.24   1377.24   1377.24     -0.00     -0.00     -0.00
  Kinetic   4879.44   4873.89   4884.98      1.06     -0.13     -1.33
  -------------------------------------------------------------------------------------
  Total      -65.02    -65.02    -65.02     -0.00     -0.00     -0.00
  in kB     -146.99   -147.01   -147.01     -0.00     -0.00     -0.00
  external pressure =     -147.00 kB  Pullay stress =        0.00 kB


 VOLUME and BASIS-vectors are now :
 -----------------------------------------------------------------------------
  energy-cutoff  :      600.00
  volume of cell :      708.69
      direct lattice vectors                 reciprocal lattice vectors
     8.915616840  0.000000000  0.000000000     0.112162738 -0.000000002 -0.000000002
     0.000000160  8.915616840  0.000000000     0.000000000  0.112162738 -0.000000002
     0.000000160  0.000000160  8.915616840     0.000000000  0.000000000  0.112162738

  length of vectors
     8.915616840  8.915616840  8.915616840     0.112162738  0.112162738  0.112162738


 FORCES acting on ions
    electron-ion (+dipol)            ewald-force                    non-local-force                 convergence-correction
 -----------------------------------------------------------------------------------------------
   0.225E-01 0.129E+00 -.118E-07   -.236E-01 -.128E+00 0.127E-07   0.617E-03 -.460E-03 -.169E-20   -.764E-04 -.373E-03 0.188E-09
   0.813E+00 0.156E+01 -.761E-08   -.807E+00 -.156E+01 0.243E-09   -.766E-02 -.518E-02 0.271E-19   -.107E-03 -.688E-03 -.203E-09
   0.813E+00 -.260E-07 -.156E+01   -.807E+00 0.278E-07 0.156E+01   -.766E-02 0.929E-10 0.518E-02   -.107E-03 0.124E-09 0.688E-03
   0.225E-01 -.129E+00 0.685E-08   -.236E-01 0.128E+00 -.743E-08   0.617E-03 0.460E-03 0.678E-20   -.764E-04 0.373E-03 -.111E-09
   -.100E+01 -.744E-02 0.744E-02   0.101E+01 0.710E-02 -.710E-02   -.399E-02 -.500E-05 0.500E-05   0.117E-02 0.342E-03 -.342E-03
   -.533E+00 0.202E-08 0.347E-07   0.534E+00 -.141E-08 -.379E-07   -.532E-03 0.297E-19 0.000E+00   0.123E-02 0.314E-09 -.636E-09
   0.268E-01 -.128E+00 0.658E-08   -.282E-01 0.128E+00 -.714E-08   0.569E-03 0.452E-03 0.339E-20   0.233E-03 0.216E-03 -.112E-09
   0.813E+00 0.205E-07 0.156E+01   -.807E+00 -.278E-07 -.156E+01   -.766E-02 -.929E-10 -.518E-02   -.107E-03 -.216E-09 -.688E-03
   0.813E+00 -.156E+01 0.202E-08   -.807E+00 0.156E+01 -.242E-09   -.766E-02 0.518E-02 0.000E+00   -.107E-03 0.688E-03 0.111E-09
   0.225E-01 0.453E-08 -.129E+00   -.236E-01 -.513E-08 0.128E+00   0.617E-03 0.825E-11 0.460E-03   -.764E-04 -.104E-09 0.373E-03
   -.100E+01 -.744E-02 -.744E-02   0.101E+01 0.710E-02 0.710E-02   -.399E-02 -.500E-05 -.500E-05   0.117E-02 0.342E-03 0.342E-03
   -.645E+01 0.998E-07 0.234E-07   0.638E+01 -.109E-06 -.109E-06   0.687E-01 0.143E-19 -.271E-19   0.100E-01 0.621E-09 0.621E-09
   -.100E+01 0.744E-02 0.744E-02   0.101E+01 -.710E-02 -.710E-02   -.399E-02 0.500E-05 0.500E-05   0.117E-02 -.342E-03 -.342E-03
   -.223E+00 0.972E-08 0.973E-08   0.220E+00 -.101E-07 -.101E-07   0.146E-02 0.889E-21 0.000E+00   0.106E-02 -.323E-09 -.323E-09
   0.823E+00 -.154E+01 0.192E-08   -.817E+00 0.154E+01 -.219E-09   -.728E-02 0.485E-02 0.000E+00   -.775E-03 0.128E-02 0.995E-10
   0.823E+00 0.202E-07 0.154E+01   -.817E+00 -.273E-07 -.154E+01   -.728E-02 -.870E-10 -.485E-02   -.775E-03 -.185E-09 -.128E-02
   0.268E-01 0.128E+00 -.120E-07   -.282E-01 -.128E+00 0.129E-07   0.569E-03 -.452E-03 -.169E-20   0.233E-03 -.216E-03 0.149E-09
   0.566E+00 0.222E-02 -.222E-02   -.566E+00 -.213E-02 0.213E-02   -.105E-03 0.338E-04 -.338E-04   -.140E-02 -.142E-03 0.142E-03
   0.430E+00 -.193E-08 -.233E-07   -.419E+00 0.139E-08 0.240E-07   -.602E-02 -.104E-19 0.000E+00   -.192E-02 -.321E-09 0.597E-09
   0.225E-01 -.954E-08 0.129E+00   -.236E-01 0.104E-07 -.128E+00   0.617E-03 -.825E-11 -.460E-03   -.764E-04 0.181E-09 -.373E-03
   -.100E+01 0.744E-02 -.744E-02   0.101E+01 -.710E-02 0.710E-02   -.399E-02 0.500E-05 -.500E-05   0.117E-02 -.342E-03 0.342E-03
   -.533E+00 0.349E-07 0.201E-08   0.534E+00 -.379E-07 -.141E-08   -.532E-03 -.258E-20 0.000E+00   0.123E-02 -.636E-09 0.314E-09
   0.823E+00 -.257E-07 -.154E+01   -.817E+00 0.274E-07 0.154E+01   -.728E-02 0.870E-10 0.485E-02   -.775E-03 0.122E-09 0.128E-02
   0.823E+00 0.154E+01 -.750E-08   -.817E+00 -.154E+01 0.266E-09   -.728E-02 -.485E-02 0.000E+00   -.775E-03 -.128E-02 -.162E-09
   0.268E-01 -.975E-08 0.128E+00   -.282E-01 0.106E-07 -.128E+00   0.569E-03 -.812E-11 -.452E-03   0.233E-03 0.146E-09 -.216E-03
   0.566E+00 0.222E-02 0.222E-02   -.566E+00 -.213E-02 -.213E-02   -.105E-03 0.338E-04 0.338E-04   -.140E-02 -.142E-03 -.142E-03
   0.167E+01 -.414E-08 0.741E-07   -.169E+01 0.187E-08 0.187E-08   0.994E-02 0.559E-20 0.678E-20   -.177E-02 -.576E-09 -.576E-09
   0.566E+00 -.222E-02 -.222E-02   -.566E+00 0.213E-02 0.213E-02   -.105E-03 -.338E-04 -.338E-04   -.140E-02 0.142E-03 0.142E-03
   0.206E+00 -.863E-08 -.861E-08   -.206E+00 0.888E-08 0.888E-08   0.549E-03 -.960E-21 -.169E-20   -.849E-03 0.338E-09 0.338E-09
   0.268E-01 0.427E-08 -.128E+00   -.282E-01 -.485E-08 0.128E+00   0.569E-03 0.812E-11 0.452E-03   0.233E-03 -.108E-09 0.216E-03
   0.566E+00 -.222E-02 0.222E-02   -.566E+00 0.213E-02 -.213E-02   -.105E-03 -.338E-04 0.338E-04   -.140E-02 0.142E-03 -.142E-03
   0.430E+00 -.230E-07 -.194E-08   -.419E+00 0.240E-07 0.139E-08   -.602E-02 -.896E-20 0.678E-20   -.192E-02 0.597E-09 -.321E-09
 -----------------------------------------------------------------------------------------------
   -.523E-03 -.102E-10 -.158E-09   0.129E-12 0.225E-12 -.105E-12   -.393E-02 0.169E-17 0.173E-17   0.329E-02 0.150E-10 0.151E-10
 
 
 POSITION                                       TOTAL-FORCE (eV/Angst)
 -----------------------------------------------------------------------------------
      6.68671      6.68671      4.45781        -0.000544      0.000077      0.000000
      6.68671      6.68671      0.00000        -0.001962     -0.003344      0.000000
      6.68671      0.00000      2.22890        -0.001962      0.000000      0.003344
      6.68671      2.22890      4.45781        -0.000544     -0.000077     -0.000000
      0.00000      6.68671      2.22890         0.003213     -0.000004      0.000004
      0.00000      0.00000      4.45781         0.001174      0.000000     -0.000000
      2.22890      6.68671      4.45781        -0.000532     -0.000094      0.000000
      6.68671      0.00000      6.68671        -0.001962     -0.000000     -0.003344
      6.68671      2.22890      0.00000        -0.001962      0.003344      0.000000
      6.68671      4.45781      2.22890        -0.000544     -0.000000     -0.000077
      0.00000      6.68671      6.68671         0.003213     -0.000004     -0.000004
      8.89562      0.00000      0.00000         0.008066     -0.000000      0.000000
      0.00000      2.22890      2.22890         0.003213      0.000004      0.000004
      0.00000      4.45781      4.45781        -0.000248      0.000000     -0.000000
      2.22890      6.68671      0.00000        -0.001560      0.002860      0.000000
      2.22890      0.00000      2.22890        -0.001560     -0.000000     -0.002860
      2.22890      2.22890      4.45781        -0.000532      0.000094      0.000000
      4.45781      6.68671      2.22890        -0.001254     -0.000017      0.000017
      4.45781      0.00000      4.45781         0.003526      0.000000     -0.000000
      6.68671      4.45781      6.68671        -0.000544      0.000000      0.000077
      0.00000      2.22890      6.68671         0.003213      0.000004     -0.000004
      0.00000      4.45781      0.00000         0.001174      0.000000      0.000000
      2.22890      0.00000      6.68671        -0.001560      0.000000      0.002860
      2.22890      2.22890      0.00000        -0.001560     -0.002860      0.000000
      2.22890      4.45781      2.22890        -0.000532      0.000000      0.000094
      4.45781      6.68671      6.68671        -0.001254     -0.000017     -0.000017
      4.45781      0.00000      0.00000        -0.006769     -0.000000     -0.000000
      4.45781      2.22890      2.22890        -0.001254      0.000017      0.000017
      4.45781      4.45781      4.45781         0.000111      0.000000      0.000000
      2.22890      4.45781      6.68671        -0.000532     -0.000000     -0.000094
      4.45781      2.22890      6.68671        -0.001254      0.000017     -0.000017
      4.45781      4.45781      0.00000         0.003526     -0.000000     -0.000000
 -----------------------------------------------------------------------------------
    total drift:                               -0.001164      0.000000     -0.000000


--------------------------------------------------------------------------------------------------------



 mean value of Nose-termostat <S>:     1.000 mean value of <T> :     0.000
 mean temperature <T/S>/<1/S>  :     0.000

     LOOP+:  VPU time 2355.05: CPU time 2355.82

 ----------------------------------------------------------------------------- 
|                                                                             |
|           W    W    AA    RRRRR   N    N  II  N    N   GGGG   !!!           |
|           W    W   A  A   R    R  NN   N  II  NN   N  G    G  !!!           |
|           W    W  A    A  R    R  N N  N  II  N N  N  G       !!!           |
|           W WW W  AAAAAA  RRRRR   N  N N  II  N  N N  G  GGG   !            |
|           WW  WW  A    A  R   R   N   NN  II  N   NN  G    G                |
|           W    W  A    A  R    R  N    N  II  N    N   GGGG   !!!           |
|                                                                             |
|      The partial DOS and the PROCAR file are not evaluated for NPAR/=1      |
|      please rerun with NPAR=1                                               |
|                                                                             |
 ----------------------------------------------------------------------------- 

  
  
 General timing and accounting informations for this job:
 ========================================================
  
                  Total CPU time used (sec):     2415.551
                            User time (sec):     2355.823
                          System time (sec):       59.728
                         Elapsed time (sec):     2416.364
  
                   Maximum memory used (kb):     1729536.
                   Average memory used (kb):           0.
  
                          Minor page faults:       166247
                          Major page faults:            0
                 Voluntary context switches:          944
