 vasp.4.6.28 25Jul05 complex 
 executed on             LinuxIFC date 2017.01.24  12:37:41
 running on    4 nodes
 distr:  one band on    1 nodes,    4 groups


--------------------------------------------------------------------------------------------------------


 INCAR:
 POTCAR:   PAW_PBE Au 06Sep2000                   
 POTCAR:   PAW_PBE Au 06Sep2000                   
   VRHFIN =Au: s1d10                                                            
   LEXCH  = PE                                                                  
   EATOM  =   926.0567 eV,   68.0632 Ry                                         
                                                                                
   TITEL  = PAW_PBE Au 06Sep2000                                                
   LULTRA =        F    use ultrasoft PP ?                                      
   IUNSCR =        1    unscreen: 0-lin 1-nonlin 2-no                           
   RPACOR =    2.330    partial core radius                                     
   POMASS =  196.966; ZVAL   =   11.000    mass and valenz                      
   RCORE  =    2.500    outmost cutoff radius                                   
   RWIGS  =    2.840; RWIGS  =    1.503    wigner-seitz radius (au A)           
   ENMAX  =  229.948; ENMIN  =  172.461 eV                                      
   RCLOC  =    1.964    cutoff for local pot                                    
   LCOR   =        T    correct aug charges                                     
   LPAW   =        T    paw PP                                                  
   EAUG   =  356.670                                                            
   DEXC   =    -.025                                                            
   RMAX   =    3.041    core radius for proj-oper                               
   RAUG   =    1.300    factor for augmentation sphere                          
   RDEP   =    2.598    radius for radial grids                                 
   QCUT   =   -4.111; QGAM   =    8.222    optimization parameters              
                                                                                
   Description                                                                  
     l     E      TYP  RCUT    TYP  RCUT                                        
     2   .000     23  2.500                                                     
     2   .000     23  2.500                                                     
     0   .000     23  2.500                                                     
     0   .000     23  2.500                                                     
     1  -.200     23  2.500                                                     
     1   .000     23  2.500                                                     
     3   .000      7   .000                                                     
  local pseudopotential read in
  partial core-charges read in
  atomic valenz-charges read in
  non local Contribution for L=           2  read in
    real space projection operators read in
  non local Contribution for L=           2  read in
    real space projection operators read in
  non local Contribution for L=           0  read in
    real space projection operators read in
  non local Contribution for L=           0  read in
    real space projection operators read in
  non local Contribution for L=           1  read in
    real space projection operators read in
  non local Contribution for L=           1  read in
    real space projection operators read in
    PAW grid and wavefunctions read in
 
   number of l-projection  operators is LMAX  =           6
   number of lm-projection operators is LMMAX =          18
 

 ----------------------------------------------------------------------------- 
|                                                                             |
|  ADVICE TO THIS USER RUNNING 'VASP/VAMP'   (HEAR YOUR MASTER'S VOICE ...):  |
|                                                                             |
|      You have a (more or less) 'large supercell' and for larger cells       |
|      it might be more efficient to use real space projection operators      |
|      So try LREAL= Auto  in the INCAR   file.                               |
|      Mind: If you want to do an extremely accurate calculations keep the    |
|      reciprocal projection scheme          (i.e. LREAL=.FALSE.)             |
|                                                                             |
 ----------------------------------------------------------------------------- 

 PAW_PBE Au 06Sep2000                   :
 energy of atom  1       EATOM= -926.0567
 kinetic energy error for atom=    0.0013 (will be added to EATOM!!)
 
 EXHCAR: internal setup
 exchange correlation table for  LEXCH =        8
   RHO(1)=    0.500       N(1)  =     2000
   RHO(2)=  100.500       N(2)  =     4000
 
 POSCAR: No title                                
  positions in direct lattice
  No initial velocities read in
 


--------------------------------------------------------------------------------------------------------


 ion  position               nearest neighbor table
   1  0.750  0.750  0.500-   3 3.15  14 3.15  19 3.15  20 3.15   5 3.15  26 3.15   6 3.15  29 3.15
                            11 3.15  18 3.15  10 3.15   8 3.15
   2  0.750  0.750  0.000-   8 3.15  10 3.15  22 3.15  27 3.15  11 3.15  18 3.15  12 3.15  32 3.15
                             5 3.15  26 3.15   3 3.15  20 3.15
   3  0.750  0.000  0.250-   1 3.15   5 3.15   9 3.15  28 3.15  19 3.15  12 3.15  13 3.15  18 3.15
                            27 3.15   6 3.15   4 3.15   2 3.15
   4  0.750  0.250  0.500-   6 3.15   8 3.15  10 3.15  29 3.15  13 3.15  31 3.15  14 3.15  19 3.15
                            21 3.15  28 3.15   3 3.15  20 3.15
   5  0.000  0.750  0.250-   3 3.15  12 3.15  14 3.15  25 3.15  15 3.15   1 3.15  16 3.15  10 3.15
                             2 3.15   7 3.15  22 3.15   6 3.15
   6  0.000  0.000  0.500-   4 3.15   7 3.15  11 3.15  13 3.15   8 3.15  16 3.15   1 3.15  17 3.15
                             3 3.15  23 3.15  21 3.15   5 3.15
   7  0.250  0.750  0.500-   6 3.15  16 3.15  29 3.15  30 3.15  11 3.15  18 3.15  14 3.15  19 3.15
                             5 3.15  26 3.15  25 3.15  23 3.15
   8  0.750  0.000  0.750-   2 3.15   4 3.15  11 3.15  31 3.15  27 3.15   6 3.15  21 3.15  26 3.15
                            12 3.15  19 3.15   9 3.15   1 3.15
   9  0.750  0.250  0.000-   3 3.15  12 3.15  20 3.15  32 3.15  28 3.15  21 3.15  22 3.15  27 3.15
                            31 3.15  13 3.15  10 3.15   8 3.15
  10  0.750  0.500  0.250-   2 3.15   4 3.15  13 3.15  18 3.15  22 3.15  29 3.15  28 3.15   5 3.15
                            14 3.15  32 3.15   9 3.15   1 3.15
  11  0.000  0.750  0.750-   6 3.15   8 3.15  22 3.15  30 3.15   7 3.15   2 3.15  23 3.15  20 3.15
                             1 3.15  15 3.15  14 3.15  12 3.15
  12  0.000  0.000  0.000-   5 3.15   9 3.15  15 3.15  21 3.15   3 3.15  23 3.15   2 3.15  24 3.15
                            16 3.15   8 3.15  13 3.15  11 3.15
  13  0.000  0.250  0.250-   6 3.15  10 3.15  16 3.15  22 3.15   4 3.15  24 3.15   3 3.15  25 3.15
                            17 3.15   9 3.15  14 3.15  12 3.15
  14  0.000  0.500  0.500-   1 3.15   5 3.15  17 3.15  21 3.15  20 3.15  25 3.15   4 3.15   7 3.15
                            10 3.15  30 3.15  13 3.15  11 3.15
  15  0.250  0.750  0.000-  12 3.15  23 3.15  25 3.15  32 3.15  26 3.15   5 3.15  27 3.15  22 3.15
                            11 3.15  18 3.15  30 3.15  16 3.15
  16  0.250  0.000  0.250-   7 3.15  13 3.15  18 3.15  24 3.15   6 3.15  27 3.15   5 3.15  28 3.15
                            19 3.15  12 3.15  17 3.15  15 3.15
  17  0.250  0.250  0.500-  14 3.15  19 3.15  23 3.15  25 3.15  21 3.15  28 3.15   6 3.15  29 3.15
                            13 3.15  31 3.15  30 3.15  16 3.15
  18  0.500  0.750  0.250-  10 3.15  16 3.15  27 3.15  29 3.15   2 3.15   7 3.15   3 3.15  25 3.15
                             1 3.15  15 3.15  19 3.15  32 3.15
  19  0.500  0.000  0.500-   1 3.15  17 3.15  26 3.15  28 3.15   3 3.15  23 3.15   4 3.15   7 3.15
                             8 3.15  16 3.15  18 3.15  31 3.15
  20  0.750  0.500  0.750-   1 3.15   9 3.15  21 3.15  26 3.15  14 3.15  32 3.15  31 3.15  11 3.15
                            22 3.15  29 3.15   4 3.15   2 3.15
  21  0.000  0.250  0.750-  12 3.15  14 3.15  20 3.15  23 3.15   9 3.15  17 3.15   8 3.15  30 3.15
                            24 3.15   4 3.15  22 3.15   6 3.15
  22  0.000  0.500  0.000-   2 3.15  11 3.15  13 3.15  24 3.15  10 3.15  30 3.15   9 3.15  15 3.15
                            25 3.15  20 3.15  21 3.15   5 3.15
  23  0.250  0.000  0.750-  15 3.15  17 3.15  21 3.15  26 3.15  12 3.15  19 3.15  11 3.15  31 3.15
                            27 3.15   6 3.15  24 3.15   7 3.15
  24  0.250  0.250  0.000-  16 3.15  22 3.15  27 3.15  30 3.15  13 3.15  31 3.15  12 3.15  32 3.15
                            28 3.15  21 3.15  25 3.15  23 3.15
  25  0.250  0.500  0.250-   5 3.15  15 3.15  17 3.15  28 3.15  14 3.15  32 3.15  13 3.15  18 3.15
                            29 3.15  22 3.15  24 3.15   7 3.15
  26  0.500  0.750  0.750-  19 3.15  20 3.15  23 3.15  32 3.15   1 3.15  15 3.15  30 3.15   8 3.15
                             7 3.15   2 3.15  27 3.15  29 3.15
  27  0.500  0.000  0.000-   2 3.15  18 3.15  24 3.15  31 3.15  16 3.15   8 3.15   9 3.15  15 3.15
                             3 3.15  23 3.15  28 3.15  26 3.15
  28  0.500  0.250  0.250-   3 3.15  19 3.15  25 3.15  32 3.15  17 3.15   9 3.15  10 3.15  16 3.15
                             4 3.15  24 3.15  29 3.15  27 3.15
  29  0.500  0.500  0.500-   4 3.15   7 3.15  18 3.15  31 3.15  30 3.15  10 3.15  17 3.15   1 3.15
                            20 3.15  25 3.15  26 3.15  28 3.15
  30  0.250  0.500  0.750-   7 3.15  11 3.15  24 3.15  31 3.15  29 3.15  22 3.15  21 3.15  26 3.15
                            14 3.15  32 3.15  17 3.15  15 3.15
  31  0.500  0.250  0.750-   8 3.15  27 3.15  29 3.15  30 3.15  24 3.15   4 3.15  20 3.15  23 3.15
                             9 3.15  17 3.15  19 3.15  32 3.15
  32  0.500  0.500  0.000-   9 3.15  15 3.15  26 3.15  28 3.15  20 3.15  25 3.15  24 3.15   2 3.15
                            10 3.15  30 3.15  18 3.15  31 3.15
 
  LATTYP: Found a simple cubic cell.
 ALAT       =     8.9156168400
  
  Lattice vectors:
  
 A1 = (   8.9156168400,   0.0000000000,   0.0000000000)
 A2 = (   0.0000001600,   8.9156168400,   0.0000000000)
 A3 = (   0.0000001600,   0.0000001600,   8.9156168400)
 Subroutine PRICEL returns following result:
 
  LATTYP: Found a face centered cubic cell.
 ALAT       =     4.4578084600
  
  Lattice vectors:
  
 A1 = (   2.2289042500,   2.2289042100,  -0.0000000000)
 A2 = (   2.2289041700,  -0.0000000400,  -2.2289042100)
 A3 = (   0.0000000000,   2.2289041700,  -2.2289042100)
 
  32 primitive cells build up your supercell.
 

Analysis of symmetry for initial positions (statically):

 Routine SETGRP: Setting up the symmetry group for a 
 simple cubic supercell.


 Subroutine GETGRP returns: Found 48 space group operations
 (whereof 48 operations were pure point group operations)
 out of a pool of 48 trial point group operations.


The static configuration has the point symmetry O_h .

Analysis of symmetry for dynamics (positions and initial velocities):

 Subroutine DYNSYM returns: Found 48 space group operations
 (whereof 48 operations were pure point group operations)
 out of a pool of 48 trial space group operations
 (whereof 48 operations were pure point group operations)
 and found also    32 'primitive' translations


The dynamic configuration has the point symmetry O_h .
 
 
 KPOINTS: Automatic mesh                          

Automatic generation of k-mesh.
 
 Subroutine IBZKPT returns following result:
 ===========================================
 
 Found     20 irreducible k-points:
 
 Following reciprocal coordinates:
            Coordinates               Weight
  0.062500  0.062500  0.062500      8.000000
  0.187500  0.062500  0.062500     24.000000
  0.312500  0.062500  0.062500     24.000000
  0.437500  0.062500  0.062500     24.000000
  0.187500  0.187500  0.062500     24.000000
  0.312500  0.187500  0.062500     48.000000
  0.437500  0.187500  0.062500     48.000000
  0.312500  0.312500  0.062500     24.000000
  0.437500  0.312500  0.062500     48.000000
  0.437500  0.437500  0.062500     24.000000
  0.187500  0.187500  0.187500      8.000000
  0.312500  0.187500  0.187500     24.000000
  0.437500  0.187500  0.187500     24.000000
  0.312500  0.312500  0.187500     24.000000
  0.437500  0.312500  0.187500     48.000000
  0.437500  0.437500  0.187500     24.000000
  0.312500  0.312500  0.312500      8.000000
  0.437500  0.312500  0.312500     24.000000
  0.437500  0.437500  0.312500     24.000000
  0.437500  0.437500  0.437500      8.000000
 
 Following cartesian coordinates:
            Coordinates               Weight
  0.007010  0.007010  0.007010      8.000000
  0.021031  0.007010  0.007010     24.000000
  0.035051  0.007010  0.007010     24.000000
  0.049071  0.007010  0.007010     24.000000
  0.021031  0.021031  0.007010     24.000000
  0.035051  0.021031  0.007010     48.000000
  0.049071  0.021031  0.007010     48.000000
  0.035051  0.035051  0.007010     24.000000
  0.049071  0.035051  0.007010     48.000000
  0.049071  0.049071  0.007010     24.000000
  0.021031  0.021031  0.021031      8.000000
  0.035051  0.021031  0.021031     24.000000
  0.049071  0.021031  0.021031     24.000000
  0.035051  0.035051  0.021031     24.000000
  0.049071  0.035051  0.021031     48.000000
  0.049071  0.049071  0.021031     24.000000
  0.035051  0.035051  0.035051      8.000000
  0.049071  0.035051  0.035051     24.000000
  0.049071  0.049071  0.035051     24.000000
  0.049071  0.049071  0.049071      8.000000
 


--------------------------------------------------------------------------------------------------------




 Dimension of arrays:
   k-Points           NKPTS =     20   number of bands    NBANDS=    212
   number of dos      NEDOS =    301   number of ions     NIONS =     32
   non local maximal  LDIM  =      6   non local SUM 2l+1 LMDIM =     18
   total plane-waves  NPLWV = 373248
   max r-space proj   IRMAX =      1   max aug-charges    IRDMAX= 257832
   dimension x,y,z NGX =    72 NGY =   72 NGZ =   72
   dimension x,y,z NGXF=   144 NGYF=  144 NGZF=  144
   support grid    NGXF=   288 NGYF=  288 NGZF=  288
   ions per type =              32
 NGX,Y,Z   is equivalent  to a cutoff of  13.43, 13.43, 13.43 a.u.
 NGXF,Y,Z  is equivalent  to a cutoff of  26.85, 26.85, 26.85 a.u.


 I would recommend the setting:
   dimension x,y,z NGX =    71 NGY =   71 NGZ =   71
 SYSTEM =  No title                                
 POSCAR =  No title                                

 Startparameter for this run:
   NWRITE =      2    write-flag & timer
   PREC   = accura    medium, high low
   ISTART =      0    job   : 0-new  1-cont  2-samecut
   ICHARG =      2    charge: 1-file 2-atom 10-const
   ISPIN  =      1    spin polarized calculation?
   LNONCOLLINEAR =      F non collinear calculations
   LSORBIT =      F    spin-orbit coupling
   INIWAV =      1    electr: 0-lowe 1-rand  2-diag
   LASPH  =      F    aspherical Exc in radial PAW
   METAGGA=      F    non-selfconsistent MetaGGA calc.

 Electronic Relaxation 1
   ENCUT  =  600.0 eV  44.10 Ry    6.64 a.u.  17.81 17.81 17.81*2*pi/ulx,y,z
   ENINI  =  600.0     initial cutoff
   ENAUG  =  356.7 eV  augmentation charge cutoff
   NELM   =     60;   NELMIN=  2; NELMDL=-12     # of ELM steps 
   EDIFF  = 0.1E-04   stopping-criterion for ELM
   LREAL  =      F    real-space projection
   LCOMPAT=      F    compatible to vasp.4.4
   LREAL_COMPAT= F    compatible to vasp.4.5.1-3
   GGA_COMPAT  = T    GGA compatible to vasp.4.4-vasp.4.6
   LMAXPAW     = -100 max onsite density
   LMAXMIX     =    2 max onsite mixed and CHGCAR
   VOSKOWN=      1    Vosko Wilk Nusair interpolation
   ROPT   =    0.00000
 Ionic relaxation
   EDIFFG = -.2E-01   stopping-criterion for IOM
   NSW    =    100    number of steps for IOM
   NBLOCK =      1;   KBLOCK =    100    inner block; outer block 
   IBRION =      2    ionic relax: 0-MD 1-quasi-New 2-CG
   NFREE  =      1    steps in history (QN), initial steepest desc. (CG)
   ISIF   =      2    stress and relaxation
   IWAVPR =     11    prediction:  0-non 1-charg 2-wave 3-comb
   ISYM   =      2    0-nonsym 1-usesym 2-fastsym
   LCORR  =      T    Harris-Foulkes like correction to forces

   POTIM  =   0.50    time-step for ionic-motion
   TEIN   =    0.0    initial temperature
   TEBEG  =    0.0;   TEEND  =   0.0 temperature during run
   SMASS  =  -3.00    Nose mass-parameter (am)
   estimated Nose-frequenzy (Omega)   =  0.10E-29 period in steps =****** mass=  -0.182E-26a.u.
   NPACO  =    256;   APACO  = 16.0  distance and # of slots for P.C.
   PSTRESS=    0.0 pullay stress

  Mass of Ions in am
   POMASS = 196.97
  Ionic Valenz
   ZVAL   =  11.00
  Atomic Wigner-Seitz radii
   RWIGS  =   1.34
   NELECT =     352.0000    total number of electrons
   NUPDOWN=      -1.0000    fix difference up-down

 DOS related values:
   EMIN   =  10.00;   EMAX   =-10.00  energy-range for DOS
   ISMEAR =     1;   SIGMA  =   0.20  broadening in eV -4-tet -1-fermi 0-gaus

 Electronic relaxation 2 (details)
   IALGO  =     48    algorithm
   LDIAG  =      T    sub-space diagonalisation
   IMIX   =      4    mixing-type and parameters
     AMIX     =   0.40;   BMIX     =  1.00
     AMIX_MAG =   1.60;   BMIX_MAG =  1.00
     AMIN     =   0.10
     WC   =   100.;   INIMIX=   1;  MIXPRE=   1

 Intra band minimization:
   WEIMIN = 0.0010     energy-eigenvalue tresh-hold
   EBREAK =  0.12E-07  absolut break condition
   DEPER  =   0.30     relativ break condition  

   TIME   =   0.10     timestep for ELM

  volume/ion in A,a.u.               =      22.15       149.45
  Fermi-wavevector in a.u.,eV,Ry     =   1.296495 22.870038  1.680900

 Second variation
   LSECVAR=     F    do a second variation
 
 Write flags
   LWAVE  =      T    write WAVECAR
   LCHARG =      F    write CHGCAR
   LVTOT  =      F    write LOCPOT, local potential
   LELF   =      F    write electronic localiz. function (ELF)
   LORBIT =      0    0 simple, 1 ext, 2 COOP (PROOUT)


 Dipole corrections
   IDIPOL =      0    1-x, 2-y, 3-z
   LDIPOL =      F    correct potential



--------------------------------------------------------------------------------------------------------


 conjugate gradient relaxation of ions
 charge density will be updated during run
 non-spin polarized calculation
 RMM-DIIS sequential band-by-band
 performe sub-space diagonalisation
    before iterative eigenvector-optimisation
 modified Broyden-mixing scheme, WC =      100.0
 initial mixing is a Kerker type mixing with AMIX =  0.4000 and BMIX =      1.0000
 Hartree-type preconditioning will be used
 using additional bands           36
 reciprocal scheme for non local part
 use partial core corrections
 calculate Harris-corrections to forces 
   (improved forces if not selfconsistent)
 use gradient corrections 
 use of overlap-Matrix (Vanderbilt PP)
 Methfessel and Paxton  Order N= 1 SIGMA  =   0.20


--------------------------------------------------------------------------------------------------------


  energy-cutoff  :      600.00
  volume of cell :      708.69
      direct lattice vectors                 reciprocal lattice vectors
     8.915616840  0.000000000  0.000000000     0.112162738 -0.000000002 -0.000000002
     0.000000160  8.915616840  0.000000000     0.000000000  0.112162738 -0.000000002
     0.000000160  0.000000160  8.915616840     0.000000000  0.000000000  0.112162738

  length of vectors
     8.915616840  8.915616840  8.915616840     0.112162738  0.112162738  0.112162738


 
 k-points in units of 2pi/SCALE and weight: Automatic mesh                          
   0.00701017  0.00701017  0.00701017       0.016
   0.02103051  0.00701017  0.00701017       0.047
   0.03505086  0.00701017  0.00701017       0.047
   0.04907120  0.00701017  0.00701017       0.047
   0.02103051  0.02103051  0.00701017       0.047
   0.03505086  0.02103051  0.00701017       0.094
   0.04907120  0.02103051  0.00701017       0.094
   0.03505086  0.03505086  0.00701017       0.047
   0.04907120  0.03505085  0.00701017       0.094
   0.04907120  0.04907120  0.00701017       0.047
   0.02103051  0.02103051  0.02103051       0.016
   0.03505086  0.02103051  0.02103051       0.047
   0.04907120  0.02103051  0.02103051       0.047
   0.03505086  0.03505086  0.02103051       0.047
   0.04907120  0.03505085  0.02103051       0.094
   0.04907120  0.04907120  0.02103051       0.047
   0.03505086  0.03505086  0.03505085       0.016
   0.04907120  0.03505085  0.03505085       0.047
   0.04907120  0.04907120  0.03505085       0.047
   0.04907120  0.04907120  0.04907120       0.016
 
 k-points in reciprocal lattice and weights: Automatic mesh                          
   0.06250000  0.06250000  0.06250000       0.016
   0.18750000  0.06250000  0.06250000       0.047
   0.31250000  0.06250000  0.06250000       0.047
   0.43750000  0.06250000  0.06250000       0.047
   0.18750000  0.18750000  0.06250000       0.047
   0.31250000  0.18750000  0.06250000       0.094
   0.43750000  0.18750000  0.06250000       0.094
   0.31250000  0.31250000  0.06250000       0.047
   0.43750000  0.31250000  0.06250000       0.094
   0.43750000  0.43750000  0.06250000       0.047
   0.18750000  0.18750000  0.18750000       0.016
   0.31250000  0.18750000  0.18750000       0.047
   0.43750000  0.18750000  0.18750000       0.047
   0.31250000  0.31250000  0.18750000       0.047
   0.43750000  0.31250000  0.18750000       0.094
   0.43750000  0.43750000  0.18750000       0.047
   0.31250000  0.31250000  0.31250000       0.016
   0.43750000  0.31250000  0.31250000       0.047
   0.43750000  0.43750000  0.31250000       0.047
   0.43750000  0.43750000  0.43750000       0.016
 
 position of ions in fractional coordinates (direct lattice) 
   0.75000000  0.75000000  0.50000000
   0.75000000  0.75000000  0.00000000
   0.75000000  0.00000000  0.25000000
   0.75000000  0.25000000  0.50000000
   0.00000000  0.75000000  0.25000000
   0.00000000  0.00000000  0.50000000
   0.25000000  0.75000000  0.50000000
   0.75000000  0.00000000  0.75000000
   0.75000000  0.25000000  0.00000000
   0.75000000  0.50000000  0.25000000
   0.00000000  0.75000000  0.75000000
   0.00000000  0.00000000  0.00000000
   0.00000000  0.25000000  0.25000000
   0.00000000  0.50000000  0.50000000
   0.25000000  0.75000000  0.00000000
   0.25000000  0.00000000  0.25000000
   0.25000000  0.25000000  0.50000000
   0.50000000  0.75000000  0.25000000
   0.50000000  0.00000000  0.50000000
   0.75000000  0.50000000  0.75000000
   0.00000000  0.25000000  0.75000000
   0.00000000  0.50000000  0.00000000
   0.25000000  0.00000000  0.75000000
   0.25000000  0.25000000  0.00000000
   0.25000000  0.50000000  0.25000000
   0.50000000  0.75000000  0.75000000
   0.50000000  0.00000000  0.00000000
   0.50000000  0.25000000  0.25000000
   0.50000000  0.50000000  0.50000000
   0.25000000  0.50000000  0.75000000
   0.50000000  0.25000000  0.75000000
   0.50000000  0.50000000  0.00000000
 
 position of ions in cartesian coordinates  (Angst):
   6.68671283  6.68671271  4.45780842
   6.68671275  6.68671263  0.00000000
   6.68671267  0.00000004  2.22890421
   6.68671275  2.22890429  4.45780842
   0.00000016  6.68671267  2.22890421
   0.00000008  0.00000008  4.45780842
   2.22890441  6.68671271  4.45780842
   6.68671275  0.00000012  6.68671263
   6.68671267  2.22890421  0.00000000
   6.68671275  4.45780846  2.22890421
   0.00000024  6.68671275  6.68671263
   0.00000000  0.00000000  0.00000000
   0.00000008  2.22890425  2.22890421
   0.00000016  4.45780850  4.45780842
   2.22890433  6.68671263  0.00000000
   2.22890425  0.00000004  2.22890421
   2.22890433  2.22890429  4.45780842
   4.45780858  6.68671267  2.22890421
   4.45780850  0.00000008  4.45780842
   6.68671283  4.45780854  6.68671263
   0.00000016  2.22890433  6.68671263
   0.00000008  4.45780842  0.00000000
   2.22890433  0.00000012  6.68671263
   2.22890425  2.22890421  0.00000000
   2.22890433  4.45780846  2.22890421
   4.45780866  6.68671275  6.68671263
   4.45780842  0.00000000  0.00000000
   4.45780850  2.22890425  2.22890421
   4.45780858  4.45780850  4.45780842
   2.22890441  4.45780854  6.68671263
   4.45780858  2.22890433  6.68671263
   4.45780850  4.45780842  0.00000000
 


--------------------------------------------------------------------------------------------------------


 k-point  1 :  0.06250.06250.0625  plane waves:  23637
 k-point  2 :  0.18750.06250.0625  plane waves:  23632
 k-point  3 :  0.31250.06250.0625  plane waves:  23622
 k-point  4 :  0.43750.06250.0625  plane waves:  23684
 k-point  5 :  0.18750.18750.0625  plane waves:  23656
 k-point  6 :  0.31250.18750.0625  plane waves:  23646
 k-point  7 :  0.43750.18750.0625  plane waves:  23638
 k-point  8 :  0.31250.31250.0625  plane waves:  23685
 k-point  9 :  0.43750.31250.0625  plane waves:  23663
 k-point 10 :  0.43750.43750.0625  plane waves:  23651
 k-point 11 :  0.18750.18750.1875  plane waves:  23619
 k-point 12 :  0.31250.18750.1875  plane waves:  23645
 k-point 13 :  0.43750.18750.1875  plane waves:  23652
 k-point 14 :  0.31250.31250.1875  plane waves:  23638
 k-point 15 :  0.43750.31250.1875  plane waves:  23663
 k-point 16 :  0.43750.43750.1875  plane waves:  23653
 k-point 17 :  0.31250.31250.3125  plane waves:  23654
 k-point 18 :  0.43750.31250.3125  plane waves:  23645
 k-point 19 :  0.43750.43750.3125  plane waves:  23636
 k-point 20 :  0.43750.43750.4375  plane waves:  23690

 maximum and minimum number of plane-waves per node :  23690 23619

 maximum number of plane-waves:  23690
 maximal index in each direction: 
   IXMAX= 17   IYMAX= 17   IZMAX= 17
   IXMIN=-18   IYMIN=-18   IZMIN=-18

 NGX is ok and might be reduce to  72
 NGY is ok and might be reduce to  72
 NGZ is ok and might be reduce to  72

 parallel 3dFFT wavefunction:
    minimum data exchange during FFTs selected (reduces bandwidth)
 parallel 3dFFT charge:
    minimum data exchange during FFTs selected (reduces bandwidth)

 For storing wavefunctions 1604.45 MBYTES are necessary
 For predicting wavefunctions  172.24 MBYTES are necessary
Broyden mixing: mesh for mixing (old mesh)
   NGX = 35   NGY = 35   NGZ = 35
  (NGX  =144   NGY  =144   NGZ  =144)
 gives a total of  42875 points
 initial charge density was supplied:
 charge density of overlapping atoms calculated
 number of electron  352.0000000 magnetization 
 keeping initial charge density in first step


--------------------------------------------------------------------------------------------------------


 Maximum index for augmentation-charges        62475 (set IRDMAX)


--------------------------------------------------------------------------------------------------------


 First call to EWALD:  gamma=   0.199
 Maximum number of real-space cells 3x 3x 3
 Maximum number of reciprocal cells 3x 3x 3

    FEWALD:  VPU time    0.01: CPU time    0.01


----------------------------------------- Iteration    1(   1)  ---------------------------------------


    POTLOK:  VPU time    2.46: CPU time    2.48
    SETDIJ:  VPU time    5.12: CPU time    5.18
    EDDIAG:  VPU time  107.97: CPU time  109.16
  RMM-DIIS:  VPU time  545.90: CPU time  551.72
    ORTHCH:  VPU time   13.43: CPU time   13.57
    DOS   :  VPU time    0.00: CPU time   -0.00
    ------------------------------------------
      LOOP:  VPU time  674.93: CPU time  682.17

 eigenvalue-minimisations  :  4240
 total energy-change (2. order) : 0.4437615E+04  (-0.1538073E+05)
 number of electron  352.0000000 magnetization 
 augmentation part   352.0000000 magnetization 

 Free energy of the ion-electron system (eV)
  ---------------------------------------------------
  alpha Z        PSCENC =      2706.08790652
  Ewald energy   TEWEN  =    -28672.55223246
  -1/2 Hartree   DENC   =     -5093.78650789
  -V(xc)+E(xc)   XCENC  =       466.31490132
  PAW double counting   =     23920.39735419   -23172.13309131
  entropy T*S    EENTRO =        -0.00431813
  eigenvalues    EBANDS =      4649.51693373
  atomic energy  EATOM  =     29633.77399530
  ---------------------------------------------------
  free energy    TOTEN  =      4437.61494127 eV

  energy without entropy =     4437.61925940  energy(sigma->0) =     4437.61638065


--------------------------------------------------------------------------------------------------------




----------------------------------------- Iteration    1(   2)  ---------------------------------------


    EDDIAG:  VPU time  106.89: CPU time  108.03
  RMM-DIIS:  VPU time  527.35: CPU time  532.71
    ORTHCH:  VPU time   11.97: CPU time   12.04
    DOS   :  VPU time    0.00: CPU time   -0.00
    ------------------------------------------
      LOOP:  VPU time  646.28: CPU time  652.84

 eigenvalue-minimisations  :  4240
 total energy-change (2. order) :-0.3424334E+04  (-0.3627485E+04)
 number of electron  352.0000000 magnetization 
 augmentation part   352.0000000 magnetization 

 Free energy of the ion-electron system (eV)
  ---------------------------------------------------
  alpha Z        PSCENC =      2706.08790652
  Ewald energy   TEWEN  =    -28672.55223246
  -1/2 Hartree   DENC   =     -5093.78650789
  -V(xc)+E(xc)   XCENC  =       466.31490132
  PAW double counting   =     23920.39735419   -23172.13309131
  entropy T*S    EENTRO =        -0.01770337
  eigenvalues    EBANDS =      1225.19639424
  atomic energy  EATOM  =     29633.77399530
  ---------------------------------------------------
  free energy    TOTEN  =      1013.28101654 eV

  energy without entropy =     1013.29871991  energy(sigma->0) =     1013.28691766


--------------------------------------------------------------------------------------------------------




----------------------------------------- Iteration    1(   3)  ---------------------------------------


    EDDIAG:  VPU time   99.84: CPU time  100.86
  RMM-DIIS:  VPU time  640.74: CPU time  647.21
    ORTHCH:  VPU time   13.26: CPU time   13.39
    DOS   :  VPU time    0.00: CPU time   -0.00
    ------------------------------------------
      LOOP:  VPU time  753.90: CPU time  761.52

 eigenvalue-minimisations  :  4240
 total energy-change (2. order) :-0.7454408E+03  (-0.7911907E+03)
 number of electron  352.0000000 magnetization 
 augmentation part   352.0000000 magnetization 

 Free energy of the ion-electron system (eV)
  ---------------------------------------------------
  alpha Z        PSCENC =      2706.08790652
  Ewald energy   TEWEN  =    -28672.55223246
  -1/2 Hartree   DENC   =     -5093.78650789
  -V(xc)+E(xc)   XCENC  =       466.31490132
  PAW double counting   =     23920.39735419   -23172.13309131
  entropy T*S    EENTRO =        -0.03953522
  eigenvalues    EBANDS =       479.77741031
  atomic energy  EATOM  =     29633.77399530
  ---------------------------------------------------
  free energy    TOTEN  =       267.84020076 eV

  energy without entropy =      267.87973597  energy(sigma->0) =      267.85337916


--------------------------------------------------------------------------------------------------------




----------------------------------------- Iteration    1(   4)  ---------------------------------------


    EDDIAG:  VPU time  119.71: CPU time  121.15
  RMM-DIIS:  VPU time  535.34: CPU time  539.63
    ORTHCH:  VPU time   11.41: CPU time   11.49
    DOS   :  VPU time    0.00: CPU time   -0.00
    ------------------------------------------
      LOOP:  VPU time  666.52: CPU time  673.21

 eigenvalue-minimisations  :  4240
 total energy-change (2. order) :-0.2302775E+03  (-0.1801416E+03)
 number of electron  352.0000000 magnetization 
 augmentation part   352.0000000 magnetization 

 Free energy of the ion-electron system (eV)
  ---------------------------------------------------
  alpha Z        PSCENC =      2706.08790652
  Ewald energy   TEWEN  =    -28672.55223246
  -1/2 Hartree   DENC   =     -5093.78650789
  -V(xc)+E(xc)   XCENC  =       466.31490132
  PAW double counting   =     23920.39735419   -23172.13309131
  entropy T*S    EENTRO =        -0.04601694
  eigenvalues    EBANDS =       249.50638969
  atomic energy  EATOM  =     29633.77399530
  ---------------------------------------------------
  free energy    TOTEN  =        37.56269841 eV

  energy without entropy =       37.60871536  energy(sigma->0) =       37.57803739


--------------------------------------------------------------------------------------------------------




----------------------------------------- Iteration    1(   5)  ---------------------------------------


    EDDIAG:  VPU time  104.35: CPU time  105.45
  RMM-DIIS:  VPU time  609.20: CPU time  615.77
    ORTHCH:  VPU time   11.89: CPU time   12.02
    DOS   :  VPU time    0.00: CPU time   -0.00
    ------------------------------------------
      LOOP:  VPU time  725.51: CPU time  733.33

 eigenvalue-minimisations  :  4240
 total energy-change (2. order) :-0.8696119E+02  (-0.5978154E+02)
 number of electron  352.0000000 magnetization 
 augmentation part   352.0000000 magnetization 

 Free energy of the ion-electron system (eV)
  ---------------------------------------------------
  alpha Z        PSCENC =      2706.08790652
  Ewald energy   TEWEN  =    -28672.55223246
  -1/2 Hartree   DENC   =     -5093.78650789
  -V(xc)+E(xc)   XCENC  =       466.31490132
  PAW double counting   =     23920.39735419   -23172.13309131
  entropy T*S    EENTRO =         0.01032750
  eigenvalues    EBANDS =       162.48885689
  atomic energy  EATOM  =     29633.77399530
  ---------------------------------------------------
  free energy    TOTEN  =       -49.39848995 eV

  energy without entropy =      -49.40881744  energy(sigma->0) =      -49.40193244


--------------------------------------------------------------------------------------------------------




----------------------------------------- Iteration    1(   6)  ---------------------------------------


    EDDIAG:  VPU time  112.30: CPU time  113.61
  RMM-DIIS:  VPU time  667.55: CPU time  675.06
    ORTHCH:  VPU time   10.20: CPU time   10.29
    DOS   :  VPU time    0.00: CPU time   -0.00
    ------------------------------------------
      LOOP:  VPU time  790.12: CPU time  799.04

 eigenvalue-minimisations  :  4240
 total energy-change (2. order) :-0.3132861E+02  (-0.2383725E+02)
 number of electron  352.0000000 magnetization 
 augmentation part   352.0000000 magnetization 

 Free energy of the ion-electron system (eV)
  ---------------------------------------------------
  alpha Z        PSCENC =      2706.08790652
  Ewald energy   TEWEN  =    -28672.55223246
  -1/2 Hartree   DENC   =     -5093.78650789
  -V(xc)+E(xc)   XCENC  =       466.31490132
  PAW double counting   =     23920.39735419   -23172.13309131
  entropy T*S    EENTRO =         0.00831143
  eigenvalues    EBANDS =       131.16226586
  atomic energy  EATOM  =     29633.77399530
  ---------------------------------------------------
  free energy    TOTEN  =       -80.72709704 eV

  energy without entropy =      -80.73540848  energy(sigma->0) =      -80.72986752


--------------------------------------------------------------------------------------------------------




----------------------------------------- Iteration    1(   7)  ---------------------------------------


    EDDIAG:  VPU time  107.80: CPU time  109.05
  RMM-DIIS:  VPU time  660.25: CPU time  666.87
    ORTHCH:  VPU time   11.84: CPU time   11.88
    DOS   :  VPU time   -0.00: CPU time   -0.00
    ------------------------------------------
      LOOP:  VPU time  779.96: CPU time  787.86

 eigenvalue-minimisations  :  4240
 total energy-change (2. order) :-0.1457184E+02  (-0.1091959E+02)
 number of electron  352.0000000 magnetization 
 augmentation part   352.0000000 magnetization 

 Free energy of the ion-electron system (eV)
  ---------------------------------------------------
  alpha Z        PSCENC =      2706.08790652
  Ewald energy   TEWEN  =    -28672.55223246
  -1/2 Hartree   DENC   =     -5093.78650789
  -V(xc)+E(xc)   XCENC  =       466.31490132
  PAW double counting   =     23920.39735419   -23172.13309131
  entropy T*S    EENTRO =         0.00819277
  eigenvalues    EBANDS =       116.59054394
  atomic energy  EATOM  =     29633.77399530
  ---------------------------------------------------
  free energy    TOTEN  =       -95.29893763 eV

  energy without entropy =      -95.30713039  energy(sigma->0) =      -95.30166855


--------------------------------------------------------------------------------------------------------




----------------------------------------- Iteration    1(   8)  ---------------------------------------


    EDDIAG:  VPU time  113.65: CPU time  113.81
  RMM-DIIS:  VPU time  708.43: CPU time  709.09
    ORTHCH:  VPU time   11.83: CPU time   11.84
    DOS   :  VPU time    0.00: CPU time   -0.00
    ------------------------------------------
      LOOP:  VPU time  833.97: CPU time  834.81

 eigenvalue-minimisations  :  4240
 total energy-change (2. order) :-0.5121513E+01  (-0.4484907E+01)
 number of electron  352.0000000 magnetization 
 augmentation part   352.0000000 magnetization 

 Free energy of the ion-electron system (eV)
  ---------------------------------------------------
  alpha Z        PSCENC =      2706.08790652
  Ewald energy   TEWEN  =    -28672.55223246
  -1/2 Hartree   DENC   =     -5093.78650789
  -V(xc)+E(xc)   XCENC  =       466.31490132
  PAW double counting   =     23920.39735419   -23172.13309131
  entropy T*S    EENTRO =         0.00894425
  eigenvalues    EBANDS =       111.46827966
  atomic energy  EATOM  =     29633.77399530
  ---------------------------------------------------
  free energy    TOTEN  =      -100.42045043 eV

  energy without entropy =     -100.42939467  energy(sigma->0) =     -100.42343184


--------------------------------------------------------------------------------------------------------




----------------------------------------- Iteration    1(   9)  ---------------------------------------


    EDDIAG:  VPU time  109.12: CPU time  110.31
  RMM-DIIS:  VPU time 1307.04: CPU time 1322.68
    ORTHCH:  VPU time   12.28: CPU time   12.40
    DOS   :  VPU time    0.00: CPU time   -0.00
    ------------------------------------------
      LOOP:  VPU time 1428.51: CPU time 1445.46

 eigenvalue-minimisations  :  8993
 total energy-change (2. order) :-0.3053103E+01  (-0.2819153E+01)
 number of electron  352.0000000 magnetization 
 augmentation part   352.0000000 magnetization 

 Free energy of the ion-electron system (eV)
  ---------------------------------------------------
  alpha Z        PSCENC =      2706.08790652
  Ewald energy   TEWEN  =    -28672.55223246
  -1/2 Hartree   DENC   =     -5093.78650789
  -V(xc)+E(xc)   XCENC  =       466.31490132
  PAW double counting   =     23920.39735419   -23172.13309131
  entropy T*S    EENTRO =         0.01116866
  eigenvalues    EBANDS =       108.41295197
  atomic energy  EATOM  =     29633.77399530
  ---------------------------------------------------
  free energy    TOTEN  =      -103.47355371 eV

  energy without entropy =     -103.48472237  energy(sigma->0) =     -103.47727659


--------------------------------------------------------------------------------------------------------




----------------------------------------- Iteration    1(  10)  ---------------------------------------


    EDDIAG:  VPU time  124.46: CPU time  124.58
  RMM-DIIS:  VPU time 1434.18: CPU time 1435.60
    ORTHCH:  VPU time   11.11: CPU time   11.12
    DOS   :  VPU time    0.00: CPU time   -0.00
    ------------------------------------------
      LOOP:  VPU time 1569.81: CPU time 1571.36

 eigenvalue-minimisations  :  9904
 total energy-change (2. order) :-0.3744291E+00  (-0.3837566E+00)
 number of electron  352.0000000 magnetization 
 augmentation part   352.0000000 magnetization 

 Free energy of the ion-electron system (eV)
  ---------------------------------------------------
  alpha Z        PSCENC =      2706.08790652
  Ewald energy   TEWEN  =    -28672.55223246
  -1/2 Hartree   DENC   =     -5093.78650789
  -V(xc)+E(xc)   XCENC  =       466.31490132
  PAW double counting   =     23920.39735419   -23172.13309131
  entropy T*S    EENTRO =         0.01126689
  eigenvalues    EBANDS =       108.03842464
  atomic energy  EATOM  =     29633.77399530
  ---------------------------------------------------
  free energy    TOTEN  =      -103.84798281 eV

  energy without entropy =     -103.85924970  energy(sigma->0) =     -103.85173844


--------------------------------------------------------------------------------------------------------




----------------------------------------- Iteration    1(  11)  ---------------------------------------


    EDDIAG:  VPU time  108.61: CPU time  108.77
  RMM-DIIS:  VPU time 1317.71: CPU time 1318.96
    ORTHCH:  VPU time   12.05: CPU time   12.05
    DOS   :  VPU time    0.00: CPU time   -0.00
    ------------------------------------------
      LOOP:  VPU time 1438.43: CPU time 1439.87

 eigenvalue-minimisations  :  9153
 total energy-change (2. order) :-0.1264624E-01  (-0.1040495E-01)
 number of electron  352.0000000 magnetization 
 augmentation part   352.0000000 magnetization 

 Free energy of the ion-electron system (eV)
  ---------------------------------------------------
  alpha Z        PSCENC =      2706.08790652
  Ewald energy   TEWEN  =    -28672.55223246
  -1/2 Hartree   DENC   =     -5093.78650789
  -V(xc)+E(xc)   XCENC  =       466.31490132
  PAW double counting   =     23920.39735419   -23172.13309131
  entropy T*S    EENTRO =         0.01128001
  eigenvalues    EBANDS =       108.02576527
  atomic energy  EATOM  =     29633.77399530
  ---------------------------------------------------
  free energy    TOTEN  =      -103.86062905 eV

  energy without entropy =     -103.87190906  energy(sigma->0) =     -103.86438905


--------------------------------------------------------------------------------------------------------




----------------------------------------- Iteration    1(  12)  ---------------------------------------


    EDDIAG:  VPU time  122.80: CPU time  122.85
  RMM-DIIS:  VPU time 1323.36: CPU time 1323.97
    ORTHCH:  VPU time   10.58: CPU time   10.58
    DOS   :  VPU time    0.00: CPU time   -0.00
    CHARGE:  VPU time   60.63: CPU time   60.66
    MIXING:  VPU time    0.07: CPU time    0.07
    ------------------------------------------
      LOOP:  VPU time 1517.51: CPU time 1518.19

 eigenvalue-minimisations  :  9301
 total energy-change (2. order) :-0.2290154E-02  (-0.2175083E-02)
 number of electron  352.0000009 magnetization 
 augmentation part   125.4217527 magnetization 

 Broyden mixing:
  rms(total) = 0.14262E+01    rms(broyden)= 0.14262E+01
  rms(prec ) = 0.21742E+01
  weight for this iteration     100.00

 Free energy of the ion-electron system (eV)
  ---------------------------------------------------
  alpha Z        PSCENC =      2706.08790652
  Ewald energy   TEWEN  =    -28672.55223246
  -1/2 Hartree   DENC   =     -5093.78650789
  -V(xc)+E(xc)   XCENC  =       466.31490132
  PAW double counting   =     23920.39735419   -23172.13309131
  entropy T*S    EENTRO =         0.01127897
  eigenvalues    EBANDS =       108.02347616
  atomic energy  EATOM  =     29633.77399530
  ---------------------------------------------------
  free energy    TOTEN  =      -103.86291921 eV

  energy without entropy =     -103.87419818  energy(sigma->0) =     -103.86667886


--------------------------------------------------------------------------------------------------------




----------------------------------------- Iteration    1(  13)  ---------------------------------------


    POTLOK:  VPU time    2.56: CPU time    2.59
    SETDIJ:  VPU time    5.69: CPU time    5.75
    EDDIAG:  VPU time  122.99: CPU time  124.45
  RMM-DIIS:  VPU time 1241.78: CPU time 1255.95
    ORTHCH:  VPU time   12.00: CPU time   12.10
    DOS   :  VPU time    0.00: CPU time   -0.00
    CHARGE:  VPU time   58.42: CPU time   58.94
    MIXING:  VPU time    0.05: CPU time    0.06
    ------------------------------------------
      LOOP:  VPU time 1443.56: CPU time 1459.91

 eigenvalue-minimisations  :  8480
 total energy-change (2. order) : 0.6416959E+01  (-0.2134288E+01)
 number of electron  352.0000010 magnetization 
 augmentation part   129.8269015 magnetization 

 Broyden mixing:
  rms(total) = 0.35687E+00    rms(broyden)= 0.35687E+00
  rms(prec ) = 0.50408E+00
  weight for this iteration     100.00

 eigenvalues of (default mixing * dielectric matrix)
  average eigenvalue GAMMA=   1.1314
  1.1314

 Free energy of the ion-electron system (eV)
  ---------------------------------------------------
  alpha Z        PSCENC =      2706.08790652
  Ewald energy   TEWEN  =    -28672.55223246
  -1/2 Hartree   DENC   =     -4845.55594307
  -V(xc)+E(xc)   XCENC  =       455.24350773
  PAW double counting   =     23439.50320874   -22716.07466795
  entropy T*S    EENTRO =        -0.00654053
  eigenvalues    EBANDS =       -97.86519408
  atomic energy  EATOM  =     29633.77399530
  ---------------------------------------------------
  free energy    TOTEN  =       -97.44595982 eV

  energy without entropy =      -97.43941928  energy(sigma->0) =      -97.44377964


--------------------------------------------------------------------------------------------------------




----------------------------------------- Iteration    1(  14)  ---------------------------------------


    POTLOK:  VPU time    2.30: CPU time    2.33
    SETDIJ:  VPU time    5.09: CPU time    5.15
    EDDIAG:  VPU time  100.67: CPU time  101.67
  RMM-DIIS:  VPU time 1118.66: CPU time 1131.00
    ORTHCH:  VPU time    8.47: CPU time    8.48
    DOS   :  VPU time    0.00: CPU time   -0.00
    CHARGE:  VPU time   46.56: CPU time   46.58
    MIXING:  VPU time    0.05: CPU time    0.05
    ------------------------------------------
      LOOP:  VPU time 1281.89: CPU time 1295.33

 eigenvalue-minimisations  :  8483
 total energy-change (2. order) : 0.1364420E+00  (-0.1703473E+00)
 number of electron  352.0000010 magnetization 
 augmentation part   130.7062178 magnetization 

 Broyden mixing:
  rms(total) = 0.18147E+00    rms(broyden)= 0.18147E+00
  rms(prec ) = 0.20661E+00
  weight for this iteration     100.00

 eigenvalues of (default mixing * dielectric matrix)
  average eigenvalue GAMMA=   1.7184
  1.2180  2.2188

 Free energy of the ion-electron system (eV)
  ---------------------------------------------------
  alpha Z        PSCENC =      2706.08790652
  Ewald energy   TEWEN  =    -28672.55223246
  -1/2 Hartree   DENC   =     -4787.54653441
  -V(xc)+E(xc)   XCENC  =       452.46535247
  PAW double counting   =     23360.37316484   -22649.85049533
  entropy T*S    EENTRO =        -0.00637398
  eigenvalues    EBANDS =      -140.05430080
  atomic energy  EATOM  =     29633.77399530
  ---------------------------------------------------
  free energy    TOTEN  =       -97.30951786 eV

  energy without entropy =      -97.30314387  energy(sigma->0) =      -97.30739320


--------------------------------------------------------------------------------------------------------




----------------------------------------- Iteration    1(  15)  ---------------------------------------


    POTLOK:  VPU time    2.24: CPU time    2.25
    SETDIJ:  VPU time    5.40: CPU time    5.41
    EDDIAG:  VPU time  102.31: CPU time  102.34
  RMM-DIIS:  VPU time 1118.93: CPU time 1119.32
    ORTHCH:  VPU time   13.82: CPU time   13.82
    DOS   :  VPU time   -0.00: CPU time   -0.00
    CHARGE:  VPU time   63.82: CPU time   63.84
    MIXING:  VPU time    0.09: CPU time    0.09
    ------------------------------------------
      LOOP:  VPU time 1306.69: CPU time 1307.14

 eigenvalue-minimisations  :  8485
 total energy-change (2. order) : 0.3118275E-01  (-0.9562897E-02)
 number of electron  352.0000010 magnetization 
 augmentation part   130.5523584 magnetization 

 Broyden mixing:
  rms(total) = 0.32312E-01    rms(broyden)= 0.32311E-01
  rms(prec ) = 0.49889E-01
  weight for this iteration     100.00

 eigenvalues of (default mixing * dielectric matrix)
  average eigenvalue GAMMA=   1.7583
  2.8100  1.2325  1.2325

 Free energy of the ion-electron system (eV)
  ---------------------------------------------------
  alpha Z        PSCENC =      2706.08790652
  Ewald energy   TEWEN  =    -28672.55223246
  -1/2 Hartree   DENC   =     -4778.89152054
  -V(xc)+E(xc)   XCENC  =       451.80614803
  PAW double counting   =     23420.87592599   -22720.82340581
  entropy T*S    EENTRO =        -0.00657645
  eigenvalues    EBANDS =      -137.54857568
  atomic energy  EATOM  =     29633.77399530
  ---------------------------------------------------
  free energy    TOTEN  =       -97.27833510 eV

  energy without entropy =      -97.27175866  energy(sigma->0) =      -97.27614296


--------------------------------------------------------------------------------------------------------




----------------------------------------- Iteration    1(  16)  ---------------------------------------


    POTLOK:  VPU time    2.52: CPU time    2.52
    SETDIJ:  VPU time    5.56: CPU time    5.56
    EDDIAG:  VPU time  115.39: CPU time  115.42
  RMM-DIIS:  VPU time 1064.33: CPU time 1064.66
    ORTHCH:  VPU time   13.91: CPU time   13.91
    DOS   :  VPU time    0.00: CPU time   -0.00
    CHARGE:  VPU time   63.96: CPU time   63.98
    MIXING:  VPU time    0.08: CPU time    0.08
    ------------------------------------------
      LOOP:  VPU time 1265.82: CPU time 1266.21

 eigenvalue-minimisations  :  8485
 total energy-change (2. order) : 0.4851395E-03  (-0.2704726E-02)
 number of electron  352.0000010 magnetization 
 augmentation part   130.6944897 magnetization 

 Broyden mixing:
  rms(total) = 0.13058E-01    rms(broyden)= 0.13057E-01
  rms(prec ) = 0.18254E-01
  weight for this iteration     100.00

 eigenvalues of (default mixing * dielectric matrix)
  average eigenvalue GAMMA=   1.8652
  1.0749  1.0749  2.7526  2.5582

 Free energy of the ion-electron system (eV)
  ---------------------------------------------------
  alpha Z        PSCENC =      2706.08790652
  Ewald energy   TEWEN  =    -28672.55223246
  -1/2 Hartree   DENC   =     -4768.21406210
  -V(xc)+E(xc)   XCENC  =       451.28705130
  PAW double counting   =     23417.42496302   -22719.29955273
  entropy T*S    EENTRO =        -0.00650713
  eigenvalues    EBANDS =      -145.77941168
  atomic energy  EATOM  =     29633.77399530
  ---------------------------------------------------
  free energy    TOTEN  =       -97.27784997 eV

  energy without entropy =      -97.27134284  energy(sigma->0) =      -97.27568092


--------------------------------------------------------------------------------------------------------




----------------------------------------- Iteration    1(  17)  ---------------------------------------


    POTLOK:  VPU time    2.64: CPU time    2.64
    SETDIJ:  VPU time    5.53: CPU time    5.53
    EDDIAG:  VPU time  101.10: CPU time  101.12
  RMM-DIIS:  VPU time  960.13: CPU time  960.38
    ORTHCH:  VPU time   13.77: CPU time   13.78
    DOS   :  VPU time    0.00: CPU time   -0.00
    CHARGE:  VPU time   63.97: CPU time   63.99
    MIXING:  VPU time    0.07: CPU time    0.07
    ------------------------------------------
      LOOP:  VPU time 1147.27: CPU time 1147.57

 eigenvalue-minimisations  :  8674
 total energy-change (2. order) : 0.3447382E-03  (-0.9879234E-04)
 number of electron  352.0000010 magnetization 
 augmentation part   130.6899587 magnetization 

 Broyden mixing:
  rms(total) = 0.63941E-02    rms(broyden)= 0.63941E-02
  rms(prec ) = 0.91583E-02
  weight for this iteration     100.00

 eigenvalues of (default mixing * dielectric matrix)
  average eigenvalue GAMMA=   1.7337
  2.8854  2.3504  1.1655  1.1655  1.1016

 Free energy of the ion-electron system (eV)
  ---------------------------------------------------
  alpha Z        PSCENC =      2706.08790652
  Ewald energy   TEWEN  =    -28672.55223246
  -1/2 Hartree   DENC   =     -4770.42536050
  -V(xc)+E(xc)   XCENC  =       451.38543012
  PAW double counting   =     23425.89668654   -22726.64101689
  entropy T*S    EENTRO =        -0.00652515
  eigenvalues    EBANDS =      -144.79638870
  atomic energy  EATOM  =     29633.77399530
  ---------------------------------------------------
  free energy    TOTEN  =       -97.27750523 eV

  energy without entropy =      -97.27098008  energy(sigma->0) =      -97.27533018


--------------------------------------------------------------------------------------------------------




----------------------------------------- Iteration    1(  18)  ---------------------------------------


    POTLOK:  VPU time    2.53: CPU time    2.53
    SETDIJ:  VPU time    5.55: CPU time    5.55
    EDDIAG:  VPU time  114.90: CPU time  114.94
  RMM-DIIS:  VPU time 1113.68: CPU time 1114.48
    ORTHCH:  VPU time   12.65: CPU time   12.66
    DOS   :  VPU time    0.00: CPU time   -0.00
    CHARGE:  VPU time   60.18: CPU time   60.21
    MIXING:  VPU time    0.07: CPU time    0.07
    ------------------------------------------
      LOOP:  VPU time 1309.63: CPU time 1310.50

 eigenvalue-minimisations  :  8480
 total energy-change (2. order) : 0.1154136E-03  (-0.5402171E-04)
 number of electron  352.0000010 magnetization 
 augmentation part   130.6687212 magnetization 

 Broyden mixing:
  rms(total) = 0.40411E-03    rms(broyden)= 0.40391E-03
  rms(prec ) = 0.54045E-03
  weight for this iteration     100.00

 eigenvalues of (default mixing * dielectric matrix)
  average eigenvalue GAMMA=   1.9106
  3.0403  2.9340  2.3135  0.9725  1.1017  1.1017

 Free energy of the ion-electron system (eV)
  ---------------------------------------------------
  alpha Z        PSCENC =      2706.08790652
  Ewald energy   TEWEN  =    -28672.55223246
  -1/2 Hartree   DENC   =     -4771.51912056
  -V(xc)+E(xc)   XCENC  =       451.43162231
  PAW double counting   =     23428.32280535   -22729.03077915
  entropy T*S    EENTRO =        -0.00653982
  eigenvalues    EBANDS =      -143.78504730
  atomic energy  EATOM  =     29633.77399530
  ---------------------------------------------------
  free energy    TOTEN  =       -97.27738981 eV

  energy without entropy =      -97.27085000  energy(sigma->0) =      -97.27520987


--------------------------------------------------------------------------------------------------------




----------------------------------------- Iteration    1(  19)  ---------------------------------------


    POTLOK:  VPU time    2.49: CPU time    2.49
    SETDIJ:  VPU time    5.55: CPU time    5.55
    EDDIAG:  VPU time  117.74: CPU time  117.80
  RMM-DIIS:  VPU time  725.02: CPU time  725.34
    ORTHCH:  VPU time   14.05: CPU time   14.06
    DOS   :  VPU time    0.00: CPU time   -0.00
    ------------------------------------------
      LOOP:  VPU time  864.91: CPU time  865.31

 eigenvalue-minimisations  :  4767
 total energy-change (2. order) : 0.3352012E-05  (-0.1084203E-05)
 number of electron  352.0000010 magnetization 
 augmentation part   130.6687212 magnetization 

 Free energy of the ion-electron system (eV)
  ---------------------------------------------------
  alpha Z        PSCENC =      2706.08790652
  Ewald energy   TEWEN  =    -28672.55223246
  -1/2 Hartree   DENC   =     -4771.58135081
  -V(xc)+E(xc)   XCENC  =       451.43460116
  PAW double counting   =     23428.04976414   -22728.73860961
  entropy T*S    EENTRO =        -0.00654032
  eigenvalues    EBANDS =      -143.74492038
  atomic energy  EATOM  =     29633.77399530
  ---------------------------------------------------
  free energy    TOTEN  =       -97.27738646 eV

  energy without entropy =      -97.27084614  energy(sigma->0) =      -97.27520635


--------------------------------------------------------------------------------------------------------




 average (electrostatic) potential at core
  the test charge radii are     1.2098
  (the norm of the test charge is              1.0000)
       1 -47.6635       2 -47.6635       3 -47.6635       4 -47.6635       5 -47.6635
       6 -47.6635       7 -47.6635       8 -47.6635       9 -47.6635      10 -47.6635
      11 -47.6635      12 -47.6635      13 -47.6635      14 -47.6635      15 -47.6635
      16 -47.6635      17 -47.6635      18 -47.6635      19 -47.6635      20 -47.6635
      21 -47.6635      22 -47.6635      23 -47.6635      24 -47.6635      25 -47.6635
      26 -47.6635      27 -47.6635      28 -47.6635      29 -47.6635      30 -47.6635
      31 -47.6635      32 -47.6635
 
 
 
 E-fermi :   2.8367     XC(G=0): -11.1996     alpha+bet : -7.8361
   add alpha+bet to get absolut eigen values

 k-point   1 :       0.0625    0.0625    0.0625
  band No.  band energies     occupation 
      1      -4.5429      2.00000
      2      -2.7650      2.00000
      3      -2.7650      2.00000
      4      -2.7650      2.00000
      5      -2.4756      2.00000
      6      -2.4565      2.00000
      7      -2.4565      2.00000
      8      -2.4565      2.00000
      9      -2.4305      2.00000
     10      -2.4305      2.00000
     11      -2.4305      2.00000
     12      -2.2162      2.00000
     13      -2.2162      2.00000
     14      -2.2162      2.00000
     15      -2.0320      2.00000
     16      -2.0320      2.00000
     17      -2.0320      2.00000
     18      -1.7539      2.00000
     19      -1.7539      2.00000
     20      -1.7539      2.00000
     21      -1.6073      2.00000
     22      -1.6073      2.00000
     23      -1.6073      2.00000
     24      -1.6073      2.00000
     25      -1.6073      2.00000
     26      -1.6073      2.00000
     27      -1.5453      2.00000
     28      -1.5453      2.00000
     29      -1.5453      2.00000
     30      -1.4865      2.00000
     31      -1.4865      2.00000
     32      -1.4865      2.00000
     33      -1.4693      2.00000
     34      -1.4693      2.00000
     35      -1.4693      2.00000
     36      -1.4693      2.00000
     37      -1.4693      2.00000
     38      -1.4693      2.00000
     39      -1.3596      2.00000
     40      -1.3596      2.00000
     41      -1.3596      2.00000
     42      -1.0947      2.00000
     43      -1.0947      2.00000
     44      -1.0947      2.00000
     45      -1.0947      2.00000
     46      -1.0947      2.00000
     47      -1.0947      2.00000
     48      -1.0334      2.00000
     49      -1.0334      2.00000
     50      -1.0334      2.00000
     51      -1.0145      2.00000
     52      -1.0145      2.00000
     53      -1.0145      2.00000
     54      -1.0145      2.00000
     55      -1.0145      2.00000
     56      -1.0145      2.00000
     57      -0.9608      2.00000
     58      -0.9608      2.00000
     59      -0.9608      2.00000
     60      -0.8356      2.00000
     61      -0.8356      2.00000
     62      -0.8356      2.00000
     63      -0.8356      2.00000
     64      -0.8356      2.00000
     65      -0.8356      2.00000
     66      -0.7692      2.00000
     67      -0.7692      2.00000
     68      -0.7692      2.00000
     69      -0.7692      2.00000
     70      -0.7692      2.00000
     71      -0.7692      2.00000
     72      -0.7534      2.00000
     73      -0.7534      2.00000
     74      -0.7534      2.00000
     75      -0.7515      2.00000
     76      -0.7515      2.00000
     77      -0.7515      2.00000
     78      -0.7392      2.00000
     79      -0.7392      2.00000
     80      -0.7383      2.00000
     81      -0.7303      2.00000
     82      -0.7303      2.00000
     83      -0.7303      2.00000
     84      -0.7239      2.00000
     85      -0.7239      2.00000
     86      -0.7048      2.00000
     87      -0.7048      2.00000
     88      -0.7048      2.00000
     89      -0.2824      2.00000
     90      -0.2824      2.00000
     91      -0.2824      2.00000
     92      -0.2016      2.00000
     93      -0.2016      2.00000
     94      -0.2016      2.00000
     95      -0.1647      2.00000
     96      -0.1647      2.00000
     97      -0.1647      2.00000
     98      -0.1062      2.00000
     99      -0.1062      2.00000
    100      -0.1062      2.00000
    101      -0.1062      2.00000
    102      -0.1062      2.00000
    103      -0.1062      2.00000
    104      -0.1046      2.00000
    105      -0.1046      2.00000
    106      -0.1046      2.00000
    107      -0.0303      2.00000
    108      -0.0303      2.00000
    109      -0.0303      2.00000
    110       0.0339      2.00000
    111       0.0339      2.00000
    112       0.0339      2.00000
    113       0.1444      2.00000
    114       0.1444      2.00000
    115       0.1444      2.00000
    116       0.1618      2.00000
    117       0.1618      2.00000
    118       0.1618      2.00000
    119       0.1903      2.00000
    120       0.1903      2.00000
    121       0.1903      2.00000
    122       0.1903      2.00000
    123       0.1903      2.00000
    124       0.1903      2.00000
    125       0.2127      2.00000
    126       0.2127      2.00000
    127       0.2248      2.00000
    128       0.2248      2.00000
    129       0.2248      2.00000
    130       0.2689      2.00000
    131       0.2689      2.00000
    132       0.2689      2.00000
    133       0.2689      2.00000
    134       0.2689      2.00000
    135       0.2689      2.00000
    136       0.3431      2.00000
    137       0.3431      2.00000
    138       0.3431      2.00000
    139       0.5378      2.00000
    140       0.5378      2.00000
    141       0.5378      2.00000
    142       0.6121      2.00000
    143       0.6121      2.00000
    144       0.6121      2.00000
    145       0.8994      2.00000
    146       0.8994      2.00000
    147       0.8994      2.00000
    148       0.9243      2.00000
    149       0.9243      2.00000
    150       0.9243      2.00000
    151       0.9549      2.00000
    152       0.9549      2.00000
    153       0.9706      2.00000
    154       0.9706      2.00000
    155       0.9706      2.00000
    156       1.1253      2.00000
    157       1.1253      2.00000
    158       1.1253      2.00000
    159       1.1550      2.00000
    160       1.1550      2.00000
    161       1.1550      2.00000
    162       1.1550      2.00000
    163       1.1550      2.00000
    164       1.1550      2.00000
    165       1.1578      2.00000
    166       1.1578      2.00000
    167       1.1578      2.00000
    168       1.9782      2.00000
    169       1.9782      2.00000
    170       1.9782      2.00000
    171       2.3498      2.00309
    172       2.3498      2.00309
    173       2.3498      2.00309
    174       2.3498      2.00309
    175       2.3498      2.00309
    176       2.3498      2.00309
    177       2.6263      2.05944
    178       2.7440      1.69906
    179       2.7440      1.69906
    180       2.7440      1.69906
    181       3.0087     -0.00758
    182       3.0087     -0.00758
    183       3.0087     -0.00758
    184       4.4586     -0.00000
    185       4.4586     -0.00000
    186       4.4586     -0.00000
    187       4.7893     -0.00000
    188       4.7893     -0.00000
    189       4.7893     -0.00000
    190       5.1324     -0.00000
    191       6.2273     -0.00000
    192       6.2273     -0.00000
    193       6.2273     -0.00000
    194       6.2273     -0.00000
    195       6.2273     -0.00000
    196       6.2273     -0.00000
    197       6.9535     -0.00000
    198       6.9535     -0.00000
    199       6.9537     -0.00000
    200       8.0852     -0.00000
    201       8.0852     -0.00000
    202       8.0853     -0.00000
    203       8.0873     -0.00000
    204       8.0884     -0.00000
    205       8.1269     -0.00000
    206       8.7579      0.00000
    207       8.7584      0.00000
    208       8.7598      0.00000
    209       8.7863      0.00000
    210       8.8155      0.00000
    211       9.3535      0.00000
    212       9.6395      0.00000

 k-point   2 :       0.1875    0.0625    0.0625
  band No.  band energies     occupation 
      1      -4.4706      2.00000
      2      -3.1422      2.00000
      3      -2.7134      2.00000
      4      -2.7134      2.00000
      5      -2.4584      2.00000
      6      -2.4201      2.00000
      7      -2.4201      2.00000
      8      -2.4015      2.00000
      9      -2.3811      2.00000
     10      -2.3811      2.00000
     11      -2.2007      2.00000
     12      -2.1959      2.00000
     13      -2.1744      2.00000
     14      -2.1744      2.00000
     15      -2.0099      2.00000
     16      -1.9972      2.00000
     17      -1.9972      2.00000
     18      -1.9229      2.00000
     19      -1.9229      2.00000
     20      -1.8845      2.00000
     21      -1.7562      2.00000
     22      -1.7562      2.00000
     23      -1.7028      2.00000
     24      -1.7028      2.00000
     25      -1.6837      2.00000
     26      -1.6081      2.00000
     27      -1.5541      2.00000
     28      -1.5541      2.00000
     29      -1.5003      2.00000
     30      -1.5003      2.00000
     31      -1.4788      2.00000
     32      -1.4788      2.00000
     33      -1.4644      2.00000
     34      -1.4644      2.00000
     35      -1.4507      2.00000
     36      -1.4507      2.00000
     37      -1.4379      2.00000
     38      -1.4379      2.00000
     39      -1.3409      2.00000
     40      -1.3409      2.00000
     41      -1.3211      2.00000
     42      -1.3211      2.00000
     43      -1.2320      2.00000
     44      -1.1097      2.00000
     45      -1.1097      2.00000
     46      -1.0948      2.00000
     47      -1.0948      2.00000
     48      -1.0900      2.00000
     49      -1.0900      2.00000
     50      -1.0733      2.00000
     51      -1.0733      2.00000
     52      -1.0200      2.00000
     53      -1.0200      2.00000
     54      -0.9515      2.00000
     55      -0.9392      2.00000
     56      -0.9392      2.00000
     57      -0.9365      2.00000
     58      -0.9365      2.00000
     59      -0.9136      2.00000
     60      -0.8763      2.00000
     61      -0.8763      2.00000
     62      -0.8695      2.00000
     63      -0.8695      2.00000
     64      -0.8303      2.00000
     65      -0.8303      2.00000
     66      -0.8086      2.00000
     67      -0.8086      2.00000
     68      -0.7835      2.00000
     69      -0.7835      2.00000
     70      -0.7789      2.00000
     71      -0.7668      2.00000
     72      -0.7668      2.00000
     73      -0.7641      2.00000
     74      -0.7371      2.00000
     75      -0.7206      2.00000
     76      -0.7010      2.00000
     77      -0.7010      2.00000
     78      -0.6992      2.00000
     79      -0.6973      2.00000
     80      -0.6943      2.00000
     81      -0.6918      2.00000
     82      -0.6918      2.00000
     83      -0.6338      2.00000
     84      -0.6338      2.00000
     85      -0.6146      2.00000
     86      -0.5663      2.00000
     87      -0.5505      2.00000
     88      -0.5505      2.00000
     89      -0.3884      2.00000
     90      -0.3884      2.00000
     91      -0.3400      2.00000
     92      -0.3400      2.00000
     93      -0.2853      2.00000
     94      -0.2728      2.00000
     95      -0.2086      2.00000
     96      -0.2086      2.00000
     97      -0.1983      2.00000
     98      -0.1926      2.00000
     99      -0.1474      2.00000
    100      -0.1474      2.00000
    101      -0.1102      2.00000
    102      -0.0456      2.00000
    103      -0.0456      2.00000
    104      -0.0431      2.00000
    105      -0.0431      2.00000
    106      -0.0347      2.00000
    107      -0.0347      2.00000
    108       0.0001      2.00000
    109       0.0001      2.00000
    110       0.0246      2.00000
    111       0.0935      2.00000
    112       0.0935      2.00000
    113       0.1262      2.00000
    114       0.1262      2.00000
    115       0.1316      2.00000
    116       0.1316      2.00000
    117       0.1835      2.00000
    118       0.1938      2.00000
    119       0.1938      2.00000
    120       0.2054      2.00000
    121       0.2054      2.00000
    122       0.2261      2.00000
    123       0.2295      2.00000
    124       0.2295      2.00000
    125       0.2730      2.00000
    126       0.2730      2.00000
    127       0.2825      2.00000
    128       0.3253      2.00000
    129       0.3335      2.00000
    130       0.3335      2.00000
    131       0.3825      2.00000
    132       0.3825      2.00000
    133       0.4049      2.00000
    134       0.4049      2.00000
    135       0.4407      2.00000
    136       0.4493      2.00000
    137       0.4493      2.00000
    138       0.4561      2.00000
    139       0.4663      2.00000
    140       0.5761      2.00000
    141       0.5761      2.00000
    142       0.6739      2.00000
    143       0.6739      2.00000
    144       0.6871      2.00000
    145       0.7485      2.00000
    146       0.7658      2.00000
    147       0.7658      2.00000
    148       0.8746      2.00000
    149       0.8799      2.00000
    150       0.8799      2.00000
    151       0.9038      2.00000
    152       0.9056      2.00000
    153       0.9499      2.00000
    154       0.9515      2.00000
    155       0.9515      2.00000
    156       0.9816      2.00000
    157       0.9816      2.00000
    158       1.0715      2.00000
    159       1.1008      2.00000
    160       1.1008      2.00000
    161       1.1016      2.00000
    162       1.1016      2.00000
    163       1.1116      2.00000
    164       1.1550      2.00000
    165       1.1550      2.00000
    166       1.1551      2.00000
    167       1.1551      2.00000
    168       1.6552      2.00000
    169       1.6552      2.00000
    170       1.9778      2.00000
    171       1.9975      2.00000
    172       1.9975      2.00000
    173       2.2937      2.00084
    174       2.3656      2.00431
    175       2.3656      2.00431
    176       2.7758      1.49001
    177       2.7858      1.41618
    178       2.7858      1.41618
    179       2.8555      0.84171
    180       2.8555      0.84171
    181       3.1925     -0.03053
    182       3.1925     -0.03053
    183       3.2363     -0.01610
    184       3.7563     -0.00000
    185       4.6587     -0.00000
    186       4.6587     -0.00000
    187       4.8007     -0.00000
    188       5.1622     -0.00000
    189       5.1622     -0.00000
    190       5.6651     -0.00000
    191       5.8102     -0.00000
    192       5.8102     -0.00000
    193       5.9533     -0.00000
    194       5.9533     -0.00000
    195       6.2222     -0.00000
    196       6.2222     -0.00000
    197       6.9222     -0.00000
    198       6.9223     -0.00000
    199       7.5227     -0.00000
    200       7.5229     -0.00000
    201       7.7867     -0.00000
    202       8.0278     -0.00000
    203       8.0311     -0.00000
    204       8.1294     -0.00000
    205       8.1334     -0.00000
    206       8.6166      0.00000
    207       8.9049      0.00000
    208       8.9659      0.00000
    209       9.0446      0.00000
    210       9.0682      0.00000
    211       9.1546      0.00000
    212       9.3552      0.00000

 k-point   3 :       0.3125    0.0625    0.0625
  band No.  band energies     occupation 
      1      -4.3273      2.00000
      2      -3.5107      2.00000
      3      -2.6133      2.00000
      4      -2.6133      2.00000
      5      -2.4051      2.00000
      6      -2.3477      2.00000
      7      -2.3477      2.00000
      8      -2.3118      2.00000
      9      -2.2858      2.00000
     10      -2.2858      2.00000
     11      -2.1595      2.00000
     12      -2.1093      2.00000
     13      -2.1093      2.00000
     14      -2.0974      2.00000
     15      -2.0935      2.00000
     16      -2.0935      2.00000
     17      -2.0467      2.00000
     18      -1.9661      2.00000
     19      -1.9359      2.00000
     20      -1.9359      2.00000
     21      -1.9274      2.00000
     22      -1.9274      2.00000
     23      -1.8636      2.00000
     24      -1.8376      2.00000
     25      -1.8376      2.00000
     26      -1.7202      2.00000
     27      -1.6902      2.00000
     28      -1.6902      2.00000
     29      -1.5178      2.00000
     30      -1.5178      2.00000
     31      -1.4612      2.00000
     32      -1.4612      2.00000
     33      -1.4242      2.00000
     34      -1.4242      2.00000
     35      -1.4207      2.00000
     36      -1.4207      2.00000
     37      -1.3776      2.00000
     38      -1.3776      2.00000
     39      -1.3625      2.00000
     40      -1.3625      2.00000
     41      -1.3049      2.00000
     42      -1.3049      2.00000
     43      -1.1824      2.00000
     44      -1.1824      2.00000
     45      -1.1297      2.00000
     46      -1.1297      2.00000
     47      -1.1234      2.00000
     48      -1.1234      2.00000
     49      -1.1089      2.00000
     50      -1.1040      2.00000
     51      -1.1040      2.00000
     52      -1.0704      2.00000
     53      -1.0704      2.00000
     54      -0.9763      2.00000
     55      -0.9763      2.00000
     56      -0.9497      2.00000
     57      -0.9497      2.00000
     58      -0.9370      2.00000
     59      -0.9370      2.00000
     60      -0.9270      2.00000
     61      -0.8882      2.00000
     62      -0.8882      2.00000
     63      -0.8326      2.00000
     64      -0.8230      2.00000
     65      -0.8230      2.00000
     66      -0.8186      2.00000
     67      -0.8132      2.00000
     68      -0.8104      2.00000
     69      -0.8104      2.00000
     70      -0.8067      2.00000
     71      -0.8067      2.00000
     72      -0.7891      2.00000
     73      -0.7891      2.00000
     74      -0.7462      2.00000
     75      -0.6899      2.00000
     76      -0.6899      2.00000
     77      -0.6750      2.00000
     78      -0.6460      2.00000
     79      -0.6460      2.00000
     80      -0.6459      2.00000
     81      -0.6444      2.00000
     82      -0.6322      2.00000
     83      -0.5043      2.00000
     84      -0.5043      2.00000
     85      -0.4998      2.00000
     86      -0.4998      2.00000
     87      -0.4084      2.00000
     88      -0.4084      2.00000
     89      -0.3965      2.00000
     90      -0.3788      2.00000
     91      -0.3505      2.00000
     92      -0.3381      2.00000
     93      -0.3206      2.00000
     94      -0.3039      2.00000
     95      -0.3011      2.00000
     96      -0.3011      2.00000
     97      -0.2419      2.00000
     98      -0.2419      2.00000
     99      -0.1197      2.00000
    100      -0.0968      2.00000
    101      -0.0968      2.00000
    102      -0.0504      2.00000
    103      -0.0504      2.00000
    104       0.0286      2.00000
    105       0.0286      2.00000
    106       0.0567      2.00000
    107       0.0567      2.00000
    108       0.0745      2.00000
    109       0.0745      2.00000
    110       0.1060      2.00000
    111       0.1060      2.00000
    112       0.1155      2.00000
    113       0.1155      2.00000
    114       0.1275      2.00000
    115       0.1806      2.00000
    116       0.1806      2.00000
    117       0.1931      2.00000
    118       0.1931      2.00000
    119       0.2213      2.00000
    120       0.2213      2.00000
    121       0.2278      2.00000
    122       0.2278      2.00000
    123       0.2527      2.00000
    124       0.3502      2.00000
    125       0.3607      2.00000
    126       0.3607      2.00000
    127       0.4000      2.00000
    128       0.4071      2.00000
    129       0.4071      2.00000
    130       0.4303      2.00000
    131       0.5040      2.00000
    132       0.5253      2.00000
    133       0.5253      2.00000
    134       0.5309      2.00000
    135       0.5426      2.00000
    136       0.5426      2.00000
    137       0.5579      2.00000
    138       0.5579      2.00000
    139       0.5697      2.00000
    140       0.5802      2.00000
    141       0.5802      2.00000
    142       0.6405      2.00000
    143       0.6880      2.00000
    144       0.6880      2.00000
    145       0.7120      2.00000
    146       0.7120      2.00000
    147       0.7615      2.00000
    148       0.7924      2.00000
    149       0.8158      2.00000
    150       0.8158      2.00000
    151       0.8202      2.00000
    152       0.8481      2.00000
    153       0.8481      2.00000
    154       0.8656      2.00000
    155       0.8882      2.00000
    156       0.8882      2.00000
    157       0.8946      2.00000
    158       0.9673      2.00000
    159       1.0011      2.00000
    160       1.0011      2.00000
    161       1.0020      2.00000
    162       1.0020      2.00000
    163       1.0273      2.00000
    164       1.1548      2.00000
    165       1.1548      2.00000
    166       1.1549      2.00000
    167       1.1549      2.00000
    168       1.3673      2.00000
    169       1.3673      2.00000
    170       1.6750      2.00000
    171       1.6750      2.00000
    172       1.9790      2.00000
    173       2.0988      2.00000
    174       2.3997      2.00840
    175       2.3997      2.00840
    176       2.6815      1.96741
    177       2.6815      1.96741
    178       2.8407      0.96632
[...]
    111      -0.0050      2.00000
    112      -0.0050      2.00000
    113      -0.0050      2.00000
    114       0.0053      2.00000
    115       0.0053      2.00000
    116       0.0053      2.00000
    117       0.0770      2.00000
    118       0.0770      2.00000
    119       0.0770      2.00000
    120       0.1255      2.00000
    121       0.1255      2.00000
    122       0.1255      2.00000
    123       0.1255      2.00000
    124       0.1255      2.00000
    125       0.1255      2.00000
    126       0.2110      2.00000
    127       0.2110      2.00000
    128       0.2110      2.00000
    129       0.2538      2.00000
    130       0.2538      2.00000
    131       0.2538      2.00000
    132       0.2623      2.00000
    133       0.2623      2.00000
    134       0.2945      2.00000
    135       0.2945      2.00000
    136       0.2945      2.00000
    137       0.3798      2.00000
    138       0.3798      2.00000
    139       0.3798      2.00000
    140       0.4347      2.00000
    141       0.4347      2.00000
    142       0.4597      2.00000
    143       0.4597      2.00000
    144       0.4597      2.00000
    145       0.9900      2.00000
    146       0.9900      2.00000
    147       0.9900      2.00000
    148       1.0087      2.00000
    149       1.0087      2.00000
    150       1.0087      2.00000
    151       1.0087      2.00000
    152       1.0087      2.00000
    153       1.0087      2.00000
    154       1.0090      2.00000
    155       1.0090      2.00000
    156       1.0090      2.00000
    157       1.0090      2.00000
    158       1.0090      2.00000
    159       1.0090      2.00000
    160       1.0122      2.00000
    161       1.0122      2.00000
    162       1.0122      2.00000
    163       1.0257      2.00000
    164       1.0257      2.00000
    165       1.0257      2.00000
    166       1.0360      2.00000
    167       1.0360      2.00000
    168       1.0360      2.00000
    169       2.8994      0.49767
    170       2.8994      0.49767
    171       2.8994      0.49767
    172       3.2113     -0.02360
    173       3.2113     -0.02360
    174       3.2113     -0.02360
    175       3.2113     -0.02360
    176       3.2113     -0.02360
    177       3.2113     -0.02360
    178       3.5005     -0.00003
    179       3.5005     -0.00003
    180       3.5005     -0.00003
    181       3.6285     -0.00000
    182       3.6285     -0.00000
    183       3.6285     -0.00000
    184       3.9517     -0.00000
    185       3.9517     -0.00000
    186       3.9517     -0.00000
    187       3.9517     -0.00000
    188       3.9517     -0.00000
    189       3.9517     -0.00000
    190       4.2569     -0.00000
    191       4.2569     -0.00000
    192       4.2569     -0.00000
    193       6.6421     -0.00000
    194       6.6422     -0.00000
    195       6.6434     -0.00000
    196       6.9827     -0.00000
    197       6.9835     -0.00000
    198       6.9859     -0.00000
    199       7.3238     -0.00000
    200       7.3238     -0.00000
    201       7.3243     -0.00000
    202       7.3274     -0.00000
    203       7.3426     -0.00000
    204       7.3879     -0.00000
    205       7.7136     -0.00000
    206       7.7136     -0.00000
    207       7.7248     -0.00000
    208       7.7366     -0.00000
    209       7.8230     -0.00000
    210       7.9150     -0.00000
    211       8.1726     -0.00000
    212       8.3769      0.00000


--------------------------------------------------------------------------------------------------------


 soft charge-density along one line, spin component           1
         0         1         2         3         4         5         6         7         8         9
 total charge-density along one line
 
 pseudopotential strength for first ion, spin component:           1
-10.727   0.000  -0.000   0.000  -0.000   0.029  -0.000   0.000
  0.000 -10.727   0.000   0.000  -0.000  -0.000   0.029  -0.000
 -0.000   0.000 -10.716   0.000  -0.000   0.000  -0.000   0.028
  0.000   0.000   0.000 -10.727   0.000  -0.000  -0.000  -0.000
 -0.000  -0.000  -0.000   0.000 -10.716   0.000   0.000   0.000
  0.029  -0.000   0.000  -0.000   0.000   0.266   0.000  -0.000
 -0.000   0.029  -0.000  -0.000   0.000   0.000   0.266   0.000
  0.000  -0.000   0.028  -0.000   0.000  -0.000   0.000   0.266
 -0.000  -0.000  -0.000   0.029  -0.000   0.000   0.000   0.000
  0.000   0.000   0.000  -0.000   0.028  -0.000  -0.000  -0.000
 -0.000  -0.000  -0.000  -0.000  -0.000   0.000   0.000  -0.000
  0.000   0.000   0.000   0.000   0.000  -0.000  -0.000  -0.000
 -0.000  -0.000  -0.000  -0.000  -0.000   0.000   0.000   0.000
 -0.000   0.000  -0.000  -0.000   0.000   0.000  -0.000   0.000
  0.000  -0.000   0.000  -0.000  -0.000  -0.000   0.000  -0.000
  0.000   0.000   0.000   0.000   0.000  -0.000  -0.000  -0.000
  0.000  -0.000   0.000   0.000  -0.000  -0.000   0.000  -0.000
 -0.000   0.000  -0.000   0.000   0.000   0.000  -0.000   0.000
 total augmentation occupancy for first ion, spin component:           1
  1.909  -0.001  -0.003   0.001   0.001  -0.074   0.001   0.000  -0.000  -0.000   0.006   0.000  -0.000  -0.000  -0.000   0.000
 -0.001   1.925  -0.003  -0.001  -0.002   0.001  -0.088   0.003   0.001  -0.000   0.001  -0.001  -0.000  -0.000  -0.000   0.000
 -0.003  -0.003   1.966  -0.001   0.004   0.000   0.003  -0.113   0.001  -0.002   0.019   0.004  -0.000  -0.000  -0.000  -0.000
  0.001  -0.001  -0.001   1.919   0.003  -0.000   0.001   0.001  -0.079  -0.001   0.005   0.000   0.000  -0.000  -0.000   0.000
  0.001  -0.002   0.004   0.003   1.949  -0.000  -0.000  -0.002  -0.001  -0.101  -0.008  -0.002  -0.000   0.000   0.000   0.000
 -0.074   0.001   0.000  -0.000  -0.000   0.094  -0.001   0.001   0.000   0.000  -0.001   0.001  -0.000  -0.000   0.000  -0.000
  0.001  -0.088   0.003   0.001  -0.000  -0.001   0.103  -0.003  -0.000   0.002   0.003   0.002   0.000  -0.000   0.000  -0.000
  0.000   0.003  -0.113   0.001  -0.002   0.001  -0.003   0.079  -0.001   0.000  -0.011  -0.001   0.000   0.000   0.000   0.000
 -0.000   0.001   0.001  -0.079  -0.001   0.000  -0.000  -0.001   0.095  -0.000  -0.002   0.001  -0.000   0.000   0.000  -0.000
 -0.000  -0.000  -0.002  -0.001  -0.101   0.000   0.002   0.000  -0.000   0.073   0.005   0.001   0.000   0.000  -0.000   0.000
  0.006   0.001   0.019   0.005  -0.008  -0.001   0.003  -0.011  -0.002   0.005   0.973  -0.244  -0.000  -0.000  -0.000  -0.000
  0.000  -0.001   0.004   0.000  -0.002   0.001   0.002  -0.001   0.001   0.001  -0.244   0.127   0.000  -0.000   0.000   0.000
 -0.000  -0.000  -0.000   0.000  -0.000  -0.000   0.000   0.000  -0.000   0.000  -0.000   0.000   0.087  -0.001   0.003  -0.006
 -0.000  -0.000  -0.000  -0.000   0.000  -0.000  -0.000   0.000   0.000   0.000  -0.000  -0.000  -0.001   0.089   0.001  -0.000
 -0.000  -0.000  -0.000  -0.000   0.000   0.000   0.000   0.000   0.000  -0.000  -0.000   0.000   0.003   0.001   0.088  -0.000
  0.000   0.000  -0.000   0.000   0.000  -0.000  -0.000   0.000  -0.000   0.000  -0.000   0.000  -0.006  -0.000  -0.000   0.000
 -0.000  -0.000  -0.000  -0.000  -0.000   0.000  -0.000   0.000   0.000  -0.000  -0.000   0.000  -0.000  -0.006  -0.000   0.000
 -0.000  -0.000   0.000  -0.000   0.000   0.000   0.000   0.000   0.000  -0.000  -0.000  -0.000  -0.000  -0.000  -0.006   0.000


------------------------ aborting loop because EDIFF is reached ----------------------------------------




--------------------------------------------------------------------------------------------------------


    CHARGE:  VPU time   71.46: CPU time   71.50
    FORLOC:  VPU time    0.37: CPU time    0.38
    FORNL :  VPU time  233.29: CPU time  233.37
    STRESS:  VPU time 1691.28: CPU time 1691.98
    FORCOR:  VPU time    2.47: CPU time    2.47
    FORHAR:  VPU time    0.95: CPU time    0.95
    MIXING:  VPU time    0.07: CPU time    0.07


--------------------------------------------------------------------------------------------------------



  FREE ENERGIE OF THE ION-ELECTRON SYSTEM (eV)
  ---------------------------------------------------
  free  energy   TOTEN  =       -97.277386 eV

  energy  without entropy=      -97.270846  energy(sigma->0) =      -97.275206
 

  FORCE on cell =-STRESS in cart. coord.  units (eV/reduce length):
  Direction    X        Y        Z        XY       YZ       ZX
  --------------------------------------------------------------------------------------
  Alpha Z   2706.09   2706.09   2706.09
  Ewald    -9557.56  -9557.56  -9557.56     -0.00     -0.00     -0.00
  Hartree   1590.51   1590.51   1590.51     -0.00     -0.00     -0.00
  E(xc)    -1571.28  -1571.28  -1571.28     -0.00     -0.00     -0.00
  Local     2223.07   2223.07   2223.07      0.00      0.00      0.00
  n-local  -1720.37  -1714.70  -1702.91      4.24      0.39      3.14
  augment   1377.19   1377.19   1377.19     -0.00     -0.00     -0.00
  Kinetic   4871.78   4878.09   4888.43      1.47     -2.11      0.23
  -------------------------------------------------------------------------------------
  Total      -65.20    -65.20    -65.20     -0.00     -0.00     -0.00
  in kB     -147.40   -147.40   -147.40     -0.00     -0.00     -0.00
  external pressure =     -147.40 kB  Pullay stress =        0.00 kB


 VOLUME and BASIS-vectors are now :
 -----------------------------------------------------------------------------
  energy-cutoff  :      600.00
  volume of cell :      708.69
      direct lattice vectors                 reciprocal lattice vectors
     8.915616840  0.000000000  0.000000000     0.112162738 -0.000000002 -0.000000002
     0.000000160  8.915616840  0.000000000     0.000000000  0.112162738 -0.000000002
     0.000000160  0.000000160  8.915616840     0.000000000  0.000000000  0.112162738

  length of vectors
     8.915616840  8.915616840  8.915616840     0.112162738  0.112162738  0.112162738


 FORCES acting on ions
    electron-ion (+dipol)            ewald-force                    non-local-force                 convergence-correction
 -----------------------------------------------------------------------------------------------
   0.637E-12 0.341E-11 -.398E-11   0.226E-13 0.986E-13 -.411E-13   -.464E-23 0.655E-23 0.256E-22   -.285E-13 -.617E-12 0.864E-13
   0.654E-12 -.980E-11 0.997E-12   0.248E-12 0.502E-13 -.256E-13   -.203E-22 -.439E-22 -.149E-22   0.128E-12 -.678E-12 -.222E-12
   0.636E-12 -.105E-12 0.905E-11   0.555E-13 0.668E-13 0.453E-13   0.223E-22 0.415E-22 -.267E-22   0.334E-12 0.239E-12 0.856E-12
   0.636E-12 -.534E-11 -.326E-11   0.817E-13 0.560E-13 0.296E-13   0.650E-22 0.266E-22 -.114E-23   0.664E-13 0.622E-12 0.394E-13
   -.982E-13 0.642E-12 0.158E-12   -.485E-13 0.666E-14 -.275E-13   -.609E-22 0.812E-22 -.310E-22   -.716E-13 -.613E-12 0.756E-12
   -.921E-13 -.745E-13 0.398E-12   0.118E-12 -.711E-13 0.493E-13   0.240E-22 0.565E-22 0.786E-23   0.513E-13 0.215E-12 0.141E-12
   0.187E-12 0.137E-11 0.208E-12   -.320E-13 0.506E-13 0.148E-14   0.293E-24 0.836E-22 -.116E-22   0.240E-13 -.479E-12 0.307E-12
   0.636E-12 -.880E-13 -.875E-11   0.285E-12 0.860E-13 -.480E-13   0.361E-22 -.352E-22 -.562E-22   -.250E-13 0.245E-12 -.801E-12
   0.653E-12 0.796E-11 0.980E-12   0.613E-13 0.119E-12 0.707E-13   0.851E-23 0.115E-21 0.199E-22   0.139E-12 0.721E-12 -.227E-12
   0.652E-12 -.434E-11 -.425E-11   0.622E-13 0.152E-12 0.113E-12   -.103E-21 0.109E-21 -.199E-22   0.505E-13 -.357E-12 0.739E-12
   -.928E-13 0.647E-12 0.639E-12   -.785E-13 0.289E-13 -.955E-13   0.255E-22 -.435E-22 -.232E-22   0.122E-12 -.476E-12 -.752E-12
   -.971E-13 -.800E-13 -.770E-13   -.617E-13 -.759E-13 0.706E-13   -.696E-22 0.427E-22 0.248E-23   -.939E-14 0.258E-12 -.247E-12
   -.923E-13 0.168E-12 0.164E-12   0.484E-13 0.666E-14 -.755E-14   0.254E-22 -.115E-22 -.248E-23   -.140E-12 0.614E-12 0.711E-12
   -.870E-13 0.391E-12 0.391E-12   -.392E-14 0.395E-13 0.192E-13   0.722E-22 0.189E-22 0.194E-22   -.878E-13 -.265E-12 -.496E-14
   0.170E-12 -.203E-11 -.123E-12   -.471E-13 -.333E-13 0.120E-13   -.626E-23 0.180E-22 0.331E-23   -.133E-12 -.683E-12 -.387E-12
   0.188E-12 -.701E-13 0.698E-12   -.395E-13 -.659E-13 0.195E-13   -.316E-22 0.129E-21 0.331E-23   -.342E-12 0.216E-12 0.907E-12
   0.188E-12 -.145E-11 0.208E-12   0.123E-12 0.222E-13 -.173E-14   -.109E-23 -.223E-22 -.215E-22   -.714E-13 0.471E-12 0.236E-12
   0.418E-12 0.147E-11 -.255E-11   0.467E-13 -.105E-12 -.595E-13   0.170E-22 0.673E-23 0.207E-23   0.287E-13 -.869E-12 0.899E-12
   0.412E-12 -.819E-13 0.143E-11   -.876E-13 -.152E-12 0.308E-13   -.170E-22 0.523E-22 0.910E-23   -.963E-13 0.140E-12 0.481E-12
   0.652E-12 -.506E-11 0.446E-11   -.813E-13 0.114E-12 0.302E-13   0.852E-22 -.115E-22 -.378E-22   -.609E-13 -.310E-12 -.760E-12
   -.872E-13 0.161E-12 0.633E-12   -.630E-13 0.786E-13 -.150E-12   -.641E-23 0.762E-23 0.248E-22   0.123E-13 0.453E-12 -.692E-12
   -.922E-13 0.397E-12 -.718E-13   0.884E-14 0.279E-13 0.222E-13   -.527E-22 0.578E-22 -.480E-22   -.238E-13 -.325E-12 -.982E-13
   0.187E-12 -.771E-13 -.205E-11   -.173E-12 0.915E-13 -.595E-13   0.616E-22 -.249E-22 0.631E-23   0.186E-13 0.165E-12 -.879E-12
   0.172E-12 0.178E-11 -.276E-12   0.506E-13 0.666E-14 0.372E-13   -.539E-22 -.262E-22 0.662E-23   -.146E-12 0.677E-12 -.334E-12
   0.170E-12 0.386E-12 -.252E-11   0.244E-13 0.404E-13 0.266E-13   -.193E-22 0.908E-23 0.165E-23   -.516E-13 -.252E-12 0.675E-12
   0.411E-12 -.525E-11 -.715E-12   -.847E-14 -.577E-14 -.155E-12   0.112E-22 0.402E-22 -.265E-22   -.166E-12 -.497E-12 -.921E-12
   0.418E-12 -.470E-13 0.642E-11   -.429E-13 -.682E-13 -.724E-13   -.296E-22 0.113E-22 -.604E-22   -.333E-13 0.268E-12 -.631E-12
   0.412E-12 -.654E-12 0.393E-11   -.878E-13 -.108E-12 -.155E-13   0.200E-22 0.594E-22 0.517E-22   0.968E-13 0.927E-12 0.777E-12
   0.407E-12 -.278E-11 0.181E-11   -.210E-12 -.341E-13 0.187E-13   0.248E-22 0.169E-22 0.372E-23   0.476E-13 -.164E-12 0.907E-13
   0.170E-12 0.393E-12 0.115E-11   0.373E-13 0.448E-13 -.417E-13   -.135E-21 0.965E-22 -.471E-22   0.594E-13 -.177E-12 -.700E-12
   0.406E-12 -.553E-12 -.608E-12   0.408E-13 0.577E-14 -.400E-13   0.458E-22 -.417E-22 -.172E-22   -.568E-13 0.500E-12 -.775E-12
   0.413E-12 0.359E-11 -.466E-12   -.159E-12 -.766E-13 -.277E-14   0.797E-22 -.746E-22 0.414E-23   -.143E-13 -.311E-12 -.225E-12
 -----------------------------------------------------------------------------------------------
   0.915E-11 -.151E-10 0.402E-11   0.902E-13 0.396E-12 -.247E-12   0.128E-22 0.750E-21 -.254E-21   -.379E-12 -.343E-12 -.955E-12
 
 
 POSITION                                       TOTAL-FORCE (eV/Angst)
 -----------------------------------------------------------------------------------
      6.68671      6.68671      4.45781        -0.000000     -0.000000     -0.000000
      6.68671      6.68671      0.00000        -0.000000      0.000000     -0.000000
      6.68671      0.00000      2.22890        -0.000000     -0.000000      0.000000
      6.68671      2.22890      4.45781        -0.000000      0.000000      0.000000
      0.00000      6.68671      2.22890        -0.000000      0.000000     -0.000000
      0.00000      0.00000      4.45781        -0.000000      0.000000     -0.000000
      2.22890      6.68671      4.45781        -0.000000      0.000000      0.000000
      6.68671      0.00000      6.68671         0.000000      0.000000     -0.000000
      6.68671      2.22890      0.00000         0.000000      0.000000      0.000000
      6.68671      4.45781      2.22890        -0.000000     -0.000000      0.000000
      0.00000      6.68671      6.68671         0.000000     -0.000000     -0.000000
      0.00000      0.00000      0.00000        -0.000000      0.000000     -0.000000
      0.00000      2.22890      2.22890        -0.000000      0.000000      0.000000
      0.00000      4.45781      4.45781        -0.000000     -0.000000      0.000000
      2.22890      6.68671      0.00000        -0.000000     -0.000000     -0.000000
      2.22890      0.00000      2.22890         0.000000     -0.000000      0.000000
      2.22890      2.22890      4.45781         0.000000      0.000000     -0.000000
      4.45781      6.68671      2.22890        -0.000000     -0.000000      0.000000
      4.45781      0.00000      4.45781        -0.000000      0.000000      0.000000
      6.68671      4.45781      6.68671         0.000000     -0.000000      0.000000
      0.00000      2.22890      6.68671         0.000000      0.000000     -0.000000
      0.00000      4.45781      0.00000         0.000000      0.000000     -0.000000
      2.22890      0.00000      6.68671         0.000000     -0.000000      0.000000
      2.22890      2.22890      0.00000         0.000000     -0.000000     -0.000000
      2.22890      4.45781      2.22890         0.000000     -0.000000      0.000000
      4.45781      6.68671      6.68671         0.000000     -0.000000     -0.000000
      4.45781      0.00000      0.00000         0.000000      0.000000      0.000000
      4.45781      2.22890      2.22890        -0.000000      0.000000      0.000000
      4.45781      4.45781      4.45781        -0.000000     -0.000000     -0.000000
      2.22890      4.45781      6.68671         0.000000      0.000000      0.000000
      4.45781      2.22890      6.68671         0.000000      0.000000      0.000000
      4.45781      4.45781      0.00000        -0.000000     -0.000000     -0.000000
 -----------------------------------------------------------------------------------
    total drift:                                0.000000     -0.000000      0.000000


--------------------------------------------------------------------------------------------------------




--------------------------------------------------------------------------------------------------------


  
 reached required accuracy - stopping structural energy minimisation
 writing wavefunctions
     LOOP+:  VPU time22460.77: CPU time22574.59

 ----------------------------------------------------------------------------- 
|                                                                             |
|           W    W    AA    RRRRR   N    N  II  N    N   GGGG   !!!           |
|           W    W   A  A   R    R  NN   N  II  NN   N  G    G  !!!           |
|           W    W  A    A  R    R  N N  N  II  N N  N  G       !!!           |
|           W WW W  AAAAAA  RRRRR   N  N N  II  N  N N  G  GGG   !            |
|           WW  WW  A    A  R   R   N   NN  II  N   NN  G    G                |
|           W    W  A    A  R    R  N    N  II  N    N   GGGG   !!!           |
|                                                                             |
|      The partial DOS and the PROCAR file are not evaluated for NPAR/=1      |
|      please rerun with NPAR=1                                               |
|                                                                             |
 ----------------------------------------------------------------------------- 

  
  
 General timing and accounting informations for this job:
 ========================================================
  
                  Total CPU time used (sec):    22619.101
                            User time (sec):    22256.363
                          System time (sec):      362.739
                         Elapsed time (sec):    22734.544
  
                   Maximum memory used (kb):     1067640.
                   Average memory used (kb):           0.
  
                          Minor page faults:       144845
                          Major page faults:            0
                 Voluntary context switches:        12938
