   4   4   0   0
  0.2273376E+02  0.4496871E-09  0.4496871E-09  0.4496871E-09  0.5000000E-15
  1.000000000000000E-004
  CAR 
 unknown system                          
     17.13737703     -5.58556794  301      1.41191935      1.00000000
     -5.586  0.0000E+00  0.0000E+00
     -5.510  0.0000E+00  0.0000E+00
     -5.434  0.0000E+00  0.0000E+00
     -5.358  0.0000E+00  0.0000E+00
     -5.283  0.0000E+00  0.0000E+00
     -5.207  0.0000E+00  0.0000E+00
     -5.131  0.0000E+00  0.0000E+00
     -5.055  0.0000E+00  0.0000E+00
     -4.980  0.0000E+00  0.0000E+00
     -4.904  0.0000E+00  0.0000E+00
     -4.828  0.0000E+00  0.0000E+00
     -4.752  0.0000E+00  0.0000E+00
     -4.677  0.0000E+00  0.0000E+00
     -4.601  0.2658E-14  0.2013E-15
     -4.525  0.2084E-01  0.1579E-02
     -4.449  0.1282E+00  0.1134E-01
     -4.374  0.2059E+00  0.2700E-01
     -4.298  0.2414E+00  0.4561E-01
     -4.222  0.3056E+00  0.6883E-01
     -4.146  0.3316E+00  0.9442E-01
     -4.071  0.4088E+00  0.1255E+00
     -3.995  0.4453E+00  0.1596E+00
     -3.919  0.4595E+00  0.1950E+00
     -3.843  0.5540E+00  0.2374E+00
     -3.768  0.6088E+00  0.2847E+00
     -3.692  0.6485E+00  0.3351E+00
     -3.616  0.7959E+00  0.3970E+00
     -3.541  0.3022E+01  0.6267E+00
     -3.465  0.9015E+01  0.1316E+01
     -3.389  0.1309E+02  0.2322E+01
     -3.313  0.1685E+02  0.3617E+01
     -3.238  0.2318E+02  0.5395E+01
     -3.162  0.2182E+02  0.7077E+01
     -3.086  0.1852E+02  0.8501E+01
     -3.010  0.1478E+02  0.9640E+01
     -2.935  0.1283E+02  0.1063E+02
     -2.859  0.1587E+02  0.1184E+02
     -2.783  0.2025E+02  0.1340E+02
     -2.707  0.1788E+02  0.1478E+02
     -2.632  0.1656E+02  0.1605E+02
     -2.556  0.1950E+02  0.1755E+02
     -2.480  0.2616E+02  0.1956E+02
     -2.404  0.2720E+02  0.2165E+02
     -2.329  0.1865E+02  0.2309E+02
     -2.253  0.1543E+02  0.2428E+02
     -2.177  0.1910E+02  0.2574E+02
     -2.101  0.2131E+02  0.2738E+02
     -2.026  0.2122E+02  0.2901E+02
     -1.950  0.2246E+02  0.3074E+02
     -1.874  0.1866E+02  0.3218E+02
     -1.798  0.1787E+02  0.3356E+02
     -1.723  0.1798E+02  0.3494E+02
     -1.647  0.2029E+02  0.3650E+02
     -1.571  0.2928E+02  0.3875E+02
     -1.495  0.2156E+02  0.4042E+02
     -1.420  0.8323E+01  0.4107E+02
     -1.344  0.1066E+01  0.4115E+02
     -1.268  0.9977E+00  0.4123E+02
     -1.192  0.8743E+00  0.4129E+02
     -1.117  0.1006E+01  0.4137E+02
     -1.041  0.8102E+00  0.4143E+02
     -0.965  0.1077E+01  0.4152E+02
     -0.889  0.8055E+00  0.4158E+02
     -0.814  0.1037E+01  0.4166E+02
     -0.738  0.8683E+00  0.4172E+02
     -0.662  0.9944E+00  0.4180E+02
     -0.587  0.9381E+00  0.4187E+02
     -0.511  0.9019E+00  0.4194E+02
     -0.435  0.1024E+01  0.4202E+02
     -0.359  0.8703E+00  0.4209E+02
     -0.284  0.1028E+01  0.4217E+02
     -0.208  0.9839E+00  0.4224E+02
     -0.132  0.9187E+00  0.4231E+02
     -0.056  0.1111E+01  0.4240E+02
      0.019  0.8578E+00  0.4246E+02
      0.095  0.1129E+01  0.4255E+02
      0.171  0.1031E+01  0.4263E+02
      0.247  0.8508E+00  0.4270E+02
      0.322  0.1121E+01  0.4278E+02
      0.398  0.9774E+00  0.4286E+02
      0.474  0.1116E+01  0.4294E+02
      0.550  0.9901E+00  0.4302E+02
      0.625  0.1114E+01  0.4311E+02
      0.701  0.9978E+00  0.4319E+02
      0.777  0.1146E+01  0.4327E+02
      0.853  0.9989E+00  0.4335E+02
      0.928  0.1119E+01  0.4344E+02
      1.004  0.1150E+01  0.4353E+02
      1.080  0.1174E+01  0.4362E+02
      1.156  0.1062E+01  0.4370E+02
      1.231  0.1251E+01  0.4379E+02
      1.307  0.1062E+01  0.4388E+02
      1.383  0.1185E+01  0.4397E+02
      1.459  0.1272E+01  0.4407E+02
      1.534  0.1199E+01  0.4416E+02
      1.610  0.1164E+01  0.4425E+02
      1.686  0.1303E+01  0.4435E+02
      1.762  0.1392E+01  0.4445E+02
      1.837  0.1216E+01  0.4455E+02
      1.913  0.1308E+01  0.4465E+02
      1.989  0.1259E+01  0.4475E+02
      2.064  0.1334E+01  0.4485E+02
      2.140  0.1141E+01  0.4494E+02
      2.216  0.1365E+01  0.4504E+02
      2.292  0.1305E+01  0.4514E+02
      2.367  0.1133E+01  0.4523E+02
      2.443  0.1201E+01  0.4532E+02
      2.519  0.1274E+01  0.4542E+02
      2.595  0.1265E+01  0.4552E+02
      2.670  0.9950E+00  0.4559E+02
      2.746  0.1419E+01  0.4570E+02
      2.822  0.1228E+01  0.4579E+02
      2.898  0.1152E+01  0.4588E+02
      2.973  0.1097E+01  0.4597E+02
      3.049  0.1053E+01  0.4605E+02
      3.125  0.1346E+01  0.4615E+02
      3.201  0.1137E+01  0.4624E+02
      3.276  0.1218E+01  0.4633E+02
      3.352  0.1112E+01  0.4642E+02
      3.428  0.1155E+01  0.4651E+02
      3.504  0.1124E+01  0.4659E+02
      3.579  0.1054E+01  0.4668E+02
      3.655  0.1201E+01  0.4677E+02
      3.731  0.1434E+01  0.4688E+02
      3.807  0.1399E+01  0.4699E+02
      3.882  0.1391E+01  0.4710E+02
      3.958  0.1671E+01  0.4722E+02
      4.034  0.1573E+01  0.4734E+02
      4.110  0.1509E+01  0.4746E+02
      4.185  0.1574E+01  0.4758E+02
      4.261  0.1524E+01  0.4770E+02
      4.337  0.1527E+01  0.4782E+02
      4.413  0.1497E+01  0.4793E+02
      4.488  0.1490E+01  0.4805E+02
      4.564  0.1643E+01  0.4817E+02
      4.640  0.1336E+01  0.4828E+02
      4.716  0.1434E+01  0.4839E+02
      4.791  0.1529E+01  0.4851E+02
      4.867  0.1307E+01  0.4861E+02
      4.943  0.1507E+01  0.4872E+02
      5.018  0.1402E+01  0.4883E+02
      5.094  0.1438E+01  0.4894E+02
      5.170  0.1296E+01  0.4904E+02
      5.246  0.1372E+01  0.4914E+02
      5.321  0.1418E+01  0.4925E+02
      5.397  0.1341E+01  0.4936E+02
      5.473  0.1334E+01  0.4946E+02
      5.549  0.1401E+01  0.4957E+02
      5.624  0.1225E+01  0.4966E+02
      5.700  0.1460E+01  0.4977E+02
      5.776  0.1218E+01  0.4987E+02
      5.852  0.1316E+01  0.4997E+02
      5.927  0.1395E+01  0.5008E+02
      6.003  0.1218E+01  0.5017E+02
      6.079  0.1403E+01  0.5028E+02
      6.155  0.1417E+01  0.5038E+02
      6.230  0.1502E+01  0.5050E+02
      6.306  0.2150E+01  0.5067E+02
      6.382  0.1917E+01  0.5081E+02
      6.458  0.1671E+01  0.5094E+02
      6.533  0.1757E+01  0.5108E+02
      6.609  0.1747E+01  0.5121E+02
      6.685  0.1560E+01  0.5133E+02
      6.761  0.1140E+01  0.5142E+02
      6.836  0.1461E+01  0.5153E+02
      6.912  0.1872E+01  0.5168E+02
      6.988  0.1500E+01  0.5179E+02
      7.064  0.1785E+01  0.5193E+02
      7.139  0.1651E+01  0.5206E+02
      7.215  0.1811E+01  0.5220E+02
      7.291  0.2203E+01  0.5237E+02
      7.367  0.1798E+01  0.5250E+02
      7.442  0.1865E+01  0.5265E+02
      7.518  0.1643E+01  0.5277E+02
      7.594  0.1580E+01  0.5290E+02
      7.669  0.2300E+01  0.5307E+02
      7.745  0.1988E+01  0.5323E+02
      7.821  0.1665E+01  0.5335E+02
      7.897  0.1598E+01  0.5348E+02
      7.972  0.1699E+01  0.5361E+02
      8.048  0.1793E+01  0.5375E+02
      8.124  0.2200E+01  0.5392E+02
      8.200  0.1862E+01  0.5406E+02
      8.275  0.1667E+01  0.5418E+02
      8.351  0.1674E+01  0.5431E+02
      8.427  0.2086E+01  0.5447E+02
      8.503  0.1783E+01  0.5461E+02
      8.578  0.2118E+01  0.5477E+02
      8.654  0.1920E+01  0.5492E+02
      8.730  0.1733E+01  0.5505E+02
      8.806  0.2097E+01  0.5521E+02
      8.881  0.1883E+01  0.5536E+02
      8.957  0.1929E+01  0.5551E+02
      9.033  0.1984E+01  0.5566E+02
      9.109  0.2162E+01  0.5582E+02
      9.184  0.1973E+01  0.5598E+02
      9.260  0.2162E+01  0.5614E+02
      9.336  0.1950E+01  0.5629E+02
      9.412  0.1924E+01  0.5644E+02
      9.487  0.1969E+01  0.5660E+02
      9.563  0.1987E+01  0.5675E+02
      9.639  0.2353E+01  0.5693E+02
      9.715  0.2145E+01  0.5709E+02
      9.790  0.1970E+01  0.5725E+02
      9.866  0.2118E+01  0.5741E+02
      9.942  0.2118E+01  0.5757E+02
     10.018  0.2078E+01  0.5773E+02
     10.093  0.2200E+01  0.5790E+02
     10.169  0.2504E+01  0.5809E+02
     10.245  0.2171E+01  0.5826E+02
     10.320  0.2205E+01  0.5843E+02
     10.396  0.2155E+01  0.5860E+02
     10.472  0.2016E+01  0.5876E+02
     10.548  0.2666E+01  0.5896E+02
     10.623  0.2495E+01  0.5915E+02
     10.699  0.2376E+01  0.5934E+02
     10.775  0.2605E+01  0.5954E+02
     10.851  0.2282E+01  0.5971E+02
     10.926  0.2052E+01  0.5987E+02
     11.002  0.2448E+01  0.6006E+02
     11.078  0.2369E+01  0.6024E+02
     11.154  0.2146E+01  0.6041E+02
     11.229  0.2319E+01  0.6058E+02
     11.305  0.2101E+01  0.6075E+02
     11.381  0.2061E+01  0.6091E+02
     11.457  0.1955E+01  0.6106E+02
     11.532  0.2220E+01  0.6123E+02
     11.608  0.2007E+01  0.6138E+02
     11.684  0.1794E+01  0.6152E+02
     11.760  0.1716E+01  0.6165E+02
     11.835  0.1670E+01  0.6178E+02
     11.911  0.1921E+01  0.6193E+02
     11.987  0.1336E+01  0.6203E+02
     12.063  0.1479E+01  0.6214E+02
     12.138  0.1190E+01  0.6224E+02
     12.214  0.1200E+01  0.6233E+02
     12.290  0.1177E+01  0.6242E+02
     12.366  0.8487E+00  0.6249E+02
     12.441  0.1187E+01  0.6258E+02
     12.517  0.9747E+00  0.6265E+02
     12.593  0.1048E+01  0.6273E+02
     12.669  0.8876E+00  0.6280E+02
     12.744  0.8109E+00  0.6286E+02
     12.820  0.8237E+00  0.6293E+02
     12.896  0.9475E+00  0.6300E+02
     12.972  0.5739E+00  0.6304E+02
     13.047  0.6293E+00  0.6309E+02
     13.123  0.8893E+00  0.6316E+02
     13.199  0.5343E+00  0.6320E+02
     13.274  0.5092E+00  0.6324E+02
     13.350  0.6879E+00  0.6330E+02
     13.426  0.5471E+00  0.6334E+02
     13.502  0.3714E+00  0.6337E+02
     13.577  0.6495E+00  0.6342E+02
     13.653  0.4382E+00  0.6345E+02
     13.729  0.3403E+00  0.6347E+02
     13.805  0.5276E+00  0.6352E+02
     13.880  0.3601E+00  0.6354E+02
     13.956  0.4085E+00  0.6358E+02
     14.032  0.3577E+00  0.6360E+02
     14.108  0.4066E+00  0.6363E+02
     14.183  0.2565E+00  0.6365E+02
     14.259  0.3577E+00  0.6368E+02
     14.335  0.2619E+00  0.6370E+02
     14.411  0.2842E+00  0.6372E+02
     14.486  0.3277E+00  0.6375E+02
     14.562  0.2702E+00  0.6377E+02
     14.638  0.1683E+00  0.6378E+02
     14.714  0.2957E+00  0.6381E+02
     14.789  0.1980E+00  0.6382E+02
     14.865  0.2502E+00  0.6384E+02
     14.941  0.2207E+00  0.6386E+02
     15.017  0.1770E+00  0.6387E+02
     15.092  0.1496E+00  0.6388E+02
     15.168  0.1889E+00  0.6390E+02
     15.244  0.1192E+00  0.6391E+02
     15.320  0.1737E+00  0.6392E+02
     15.395  0.1198E+00  0.6393E+02
     15.471  0.1610E+00  0.6394E+02
     15.547  0.8760E-01  0.6395E+02
     15.623  0.1337E+00  0.6396E+02
     15.698  0.8647E-01  0.6396E+02
     15.774  0.1290E+00  0.6397E+02
     15.850  0.8038E-01  0.6398E+02
     15.925  0.6330E-01  0.6398E+02
     16.001  0.7837E-01  0.6399E+02
     16.077  0.7990E-01  0.6400E+02
     16.153  0.4004E-01  0.6400E+02
     16.228  0.0000E+00  0.6400E+02
     16.304  0.0000E+00  0.6400E+02
     16.380  0.0000E+00  0.6400E+02
     16.456  0.0000E+00  0.6400E+02
     16.531  0.0000E+00  0.6400E+02
     16.607  0.0000E+00  0.6400E+02
     16.683  0.0000E+00  0.6400E+02
     16.759  0.0000E+00  0.6400E+02
     16.834  0.0000E+00  0.6400E+02
     16.910  0.0000E+00  0.6400E+02
     16.986  0.0000E+00  0.6400E+02
     17.062  0.0000E+00  0.6400E+02
     17.137  0.0000E+00  0.6400E+02
