    4    4    1    1
  0.2273376E+02  0.4496871E-09  0.4496871E-09  0.4496871E-09  0.5000000E-15
  1.000000000000000E-004
  CAR 
 unknown system                          
   44 1330   32
 
  0.0000000E+00  0.0000000E+00  0.0000000E+00  0.2143347E-04
   1       -4.5527
   2       -3.6005
   3       -3.6005
   4       -3.6005
   5       -3.5489
   6       -3.5489
   7       -3.5489
   8       -2.6547
   9       -2.6547
  10       -2.6547
  11       -2.0408
  12       -2.0408
  13       -1.5850
  14       -1.5850
  15       -1.5850
  16       -1.4397
  17       -1.4397
  18       -1.4397
  19       -1.4397
  20       -1.4397
  21       -1.4397
  22        3.2027
  23        3.2027
  24        3.2027
  25        6.1533
  26        6.1533
  27        6.1533
  28       10.6784
  29       10.6784
  30       10.6784
  31       10.6784
  32       10.6784
 
  0.2777778E-01  0.0000000E+00  0.0000000E+00  0.1286008E-03
   1       -4.5463
   2       -3.5983
   3       -3.5977
   4       -3.5977
   5       -3.5473
   6       -3.5464
   7       -3.5464
   8       -2.6565
   9       -2.6528
  10       -2.6528
  11       -2.0427
  12       -2.0400
  13       -1.5874
  14       -1.5874
  15       -1.5859
  16       -1.4474
  17       -1.4474
  18       -1.4426
  19       -1.4426
  20       -1.4397
  21       -1.4397
  22        3.1350
  23        3.2163
  24        3.2163
  25        6.1551
  26        6.1551
  27        6.2322
  28       10.6479
  29       10.6479
  30       10.6481
  31       10.6481
  32       10.6887
 
  0.5555556E-01  0.0000000E+00  0.0000000E+00  0.1286008E-03
   1       -4.5269
   2       -3.5918
   3       -3.5893
   4       -3.5893
   5       -3.5425
   6       -3.5389
   7       -3.5389
   8       -2.6620
   9       -2.6473
  10       -2.6473
  11       -2.0481
  12       -2.0375
  13       -1.5945
  14       -1.5945
  15       -1.5886
  16       -1.4702
  17       -1.4702
  18       -1.4515
  19       -1.4515
  20       -1.4397
  21       -1.4397
  22        2.9504
  23        3.2567
  24        3.2567
  25        6.1603
  26        6.1603
  27        6.4505
  28       10.5597
  29       10.5597
  30       10.5602
  31       10.5602
  32       10.7194
 
  0.8333333E-01  0.0000000E+00  0.0000000E+00  0.1286008E-03
   1       -4.4947
   2       -3.5810
   3       -3.5755
   4       -3.5755
   5       -3.5347
   6       -3.5265
   7       -3.5265
   8       -2.6711
   9       -2.6381
  10       -2.6381
  11       -2.0570
  12       -2.0333
  13       -1.6062
  14       -1.6062
  15       -1.5930
  16       -1.5074
  17       -1.5074
  18       -1.4661
  19       -1.4661
  20       -1.4396
  21       -1.4396
  22        2.6868
  23        3.3231
  24        3.3231
  25        6.1691
  26        6.1691
  27        6.7703
  28       10.4199
  29       10.4199
  30       10.4249
  31       10.4249
  32       10.7704
 
  0.1111111E+00  0.0000000E+00  0.0000000E+00  0.1286008E-03
   1       -4.4499
   2       -3.5661
   3       -3.5565
   4       -3.5565
   5       -3.5237
   6       -3.5092
   7       -3.5092
   8       -2.6836
   9       -2.6253
  10       -2.6253
  11       -2.0691
  12       -2.0276
  13       -1.6225
  14       -1.6225
  15       -1.5992
  16       -1.5575
  17       -1.5575
  18       -1.4862
  19       -1.4862
  20       -1.4396
  21       -1.4396
  22        2.3773
  23        3.4142
  24        3.4142
  25        6.1814
  26        6.1814
  27        7.1585
  28       10.2378
  29       10.2378
  30       10.2544
  31       10.2544
  32       10.8415
 
  0.1388889E+00  0.0000000E+00  0.0000000E+00  0.1286008E-03
   1       -4.3927
   2       -3.5472
   3       -3.5325
   4       -3.5325
   5       -3.5097
   6       -3.4869
   7       -3.4869
   8       -2.6996
   9       -2.6089
  10       -2.6089
  11       -2.0841
  12       -2.0202
  13       -1.6430
  14       -1.6430
  15       -1.6190
  16       -1.6190
  17       -1.6071
  18       -1.5116
  19       -1.5116
  20       -1.4396
  21       -1.4396
  22        2.0440
  23        3.5282
  24        3.5282
  25        6.1972
  26        6.1972
  27        7.5931
  28       10.0222
  29       10.0222
  30       10.0604
  31       10.0604
  32       10.9323
 
  0.1666667E+00  0.0000000E+00  0.0000000E+00  0.1286008E-03
   1       -4.3235
   2       -3.5247
   3       -3.5039
   4       -3.5039
   5       -3.4928
   6       -3.4597
   7       -3.4597
   8       -2.7188
   9       -2.5890
  10       -2.5890
  11       -2.1015
  12       -2.0113
  13       -1.6901
  14       -1.6901
  15       -1.6676
  16       -1.6676
  17       -1.6165
  18       -1.5420
  19       -1.5420
  20       -1.4396
  21       -1.4396
  22        1.7001
  23        3.6633
  24        3.6633
  25        6.2166
  26        6.2166
  27        8.0608
  28        9.7815
  29        9.7815
  30        9.8531
  31        9.8531
  32       11.0424
 
  0.1944444E+00  0.0000000E+00  0.0000000E+00  0.1286008E-03
   1       -4.2428
   2       -3.4988
   3       -3.4731
   4       -3.4713
   5       -3.4713
   6       -3.4276
   7       -3.4276
   8       -2.7411
   9       -2.5656
  10       -2.5656
  11       -2.1207
  12       -2.0009
  13       -1.7690
  14       -1.7690
  15       -1.6959
  16       -1.6959
  17       -1.6276
  18       -1.5768
  19       -1.5768
  20       -1.4395
  21       -1.4395
  22        1.3537
  23        3.8177
  24        3.8177
  25        6.2396
  26        6.2396
  27        8.5538
  28        9.5221
  29        9.5221
  30        9.6404
  31        9.6404
  32       11.1712
 
  0.2222222E+00  0.0000000E+00  0.0000000E+00  0.1286008E-03
   1       -4.1513
   2       -3.4699
   3       -3.4507
   4       -3.4351
   5       -3.4351
   6       -3.3907
   7       -3.3907
   8       -2.7663
   9       -2.5389
  10       -2.5389
  11       -2.1407
  12       -1.9892
  13       -1.8540
  14       -1.8540
  15       -1.7274
  16       -1.7274
  17       -1.6400
  18       -1.6157
  19       -1.6157
  20       -1.4395
  21       -1.4395
  22        1.0100
  23        3.9895
  24        3.9895
  25        6.2660
  26        6.2660
  27        9.0670
  28        9.2494
  29        9.2494
  30        9.4284
  31        9.4284
  32       11.3182
 
  0.2500000E+00  0.0000000E+00  0.0000000E+00  0.1286008E-03
   1       -4.0501
   2       -3.4386
   3       -3.4257
   4       -3.3963
   5       -3.3963
   6       -3.3489
   7       -3.3489
   8       -2.7941
   9       -2.5089
  10       -2.5089
  11       -2.1605
  12       -1.9761
  13       -1.9435
  14       -1.9435
  15       -1.7615
  16       -1.7615
  17       -1.6581
  18       -1.6581
  19       -1.6538
  20       -1.4394
  21       -1.4394
  22        0.6722
  23        4.1771
  24        4.1771
  25        6.2957
  26        6.2957
  27        8.9673
  28        8.9673
  29        9.2219
  30        9.2219
  31        9.5972
  32       11.4827
 
  0.2777778E+00  0.0000000E+00  0.0000000E+00  0.1286008E-03
   1       -3.9405
   2       -3.4055
   3       -3.3984
   4       -3.3555
   5       -3.3555
   6       -3.3024
   7       -3.3024
   8       -2.8242
   9       -2.4757
  10       -2.4757
  11       -2.1782
  12       -2.0362
  13       -2.0362
  14       -1.9617
  15       -1.7976
  16       -1.7976
  17       -1.7036
  18       -1.7036
  19       -1.6688
  20       -1.4394
  21       -1.4394
  22        0.3429
  23        4.3788
  24        4.3788
  25        6.3283
  26        6.3283
  27        8.6790
  28        8.6790
  29        9.0247
  30        9.0247
  31       10.1423
  32       11.6641
 
  0.3055556E+00  0.0000000E+00  0.0000000E+00  0.1286008E-03
   1       -3.8248
   2       -3.3712
   3       -3.3688
   4       -3.3139
   5       -3.3139
   6       -3.2511
   7       -3.2511
   8       -2.8566
   9       -2.4395
  10       -2.4395
  11       -2.1916
  12       -2.1306
  13       -2.1306
  14       -1.9463
  15       -1.8346
  16       -1.8346
  17       -1.7517
  18       -1.7517
  19       -1.6849
  20       -1.4393
  21       -1.4393
  22        0.0239
  23        4.5933
  24        4.5933
  25        6.3633
  26        6.3633
  27        8.3868
  28        8.3868
  29        8.8398
  30        8.8398
  31       10.7006
  32       11.8617
 
  0.3333333E+00  0.0000000E+00  0.0000000E+00  0.1286008E-03
   1       -3.7059
   2       -3.3371
   3       -3.3367
   4       -3.2727
   5       -3.2727
   6       -3.1952
   7       -3.1952
   8       -2.8907
   9       -2.4005
  10       -2.4005
  11       -2.2258
  12       -2.2258
  13       -2.1975
  14       -1.9298
  15       -1.8716
  16       -1.8716
  17       -1.8018
  18       -1.8018
  19       -1.7020
  20       -1.4393
  21       -1.4393
  22       -0.2831
  23        4.8194
  24        4.8194
  25        6.3998
  26        6.3998
  27        8.0929
  28        8.0929
  29        8.6702
  30        8.6702
  31       11.2709
  32       12.0747
 
  0.3611111E+00  0.0000000E+00  0.0000000E+00  0.1286008E-03
   1       -3.5882
   2       -3.3037
   3       -3.3032
   4       -3.2333
   5       -3.2333
   6       -3.1348
   7       -3.1348
   8       -2.9264
   9       -2.3589
  10       -2.3589
  11       -2.3208
  12       -2.3208
  13       -2.1912
  14       -1.9125
  15       -1.9071
  16       -1.9071
  17       -1.8535
  18       -1.8535
  19       -1.7199
  20       -1.4392
  21       -1.4392
  22       -0.5764
  23        5.0558
  24        5.0558
  25        6.4366
  26        6.4366
  27        7.7986
  28        7.7986
  29        8.5185
  30        8.5185
  31       11.8523
  32       12.3024
 
  0.3888889E+00  0.0000000E+00  0.0000000E+00  0.1286008E-03
   1       -3.4776
   2       -3.2723
   3       -3.2687
   4       -3.1974
   5       -3.1974
   6       -3.0699
   7       -3.0699
   8       -2.9634
   9       -2.4148
  10       -2.4148
  11       -2.3147
  12       -2.3147
  13       -2.1665
  14       -1.9397
  15       -1.9397
  16       -1.9062
  17       -1.9062
  18       -1.8944
  19       -1.7385
  20       -1.4392
  21       -1.4392
  22       -0.8543
  23        5.3015
  24        5.3015
  25        6.4721
  26        6.4721
  27        7.5052
  28        7.5052
  29        8.3877
  30        8.3877
  31       12.4442
  32       12.5441
 
  0.4166667E+00  0.0000000E+00  0.0000000E+00  0.1286008E-03
   1       -3.3809
   2       -3.2459
   3       -3.2324
   4       -3.1668
   5       -3.1668
   6       -3.0014
   7       -3.0007
   8       -3.0007
   9       -2.5072
  10       -2.5072
  11       -2.2684
  12       -2.2684
  13       -2.1164
  14       -1.9677
  15       -1.9677
  16       -1.9595
  17       -1.9595
  18       -1.8756
  19       -1.7577
  20       -1.4392
  21       -1.4392
  22       -1.1147
  23        5.5558
  24        5.5558
  25        6.5039
  26        6.5039
  27        7.2139
  28        7.2139
  29        8.2809
  30        8.2809
  31       12.7988
  32       12.7988
 
  0.4444444E+00  0.0000000E+00  0.0000000E+00  0.1286008E-03
   1       -3.3049
   2       -3.2268
   3       -3.1950
   4       -3.1432
   5       -3.1432
   6       -3.0400
   7       -2.9274
   8       -2.9274
   9       -2.5974
  10       -2.5974
  11       -2.2201
  12       -2.2200
  13       -2.0338
  14       -2.0130
  15       -2.0130
  16       -1.9894
  17       -1.9894
  18       -1.8563
  19       -1.7772
  20       -1.4392
  21       -1.4392
  22       -1.3548
  23        5.8176
  24        5.8176
  25        6.5296
  26        6.5296
  27        6.9255
  28        6.9255
  29        8.2013
  30        8.2013
  31       13.0659
  32       13.0659
 
  0.4722222E+00  0.0000000E+00  0.0000000E+00  0.1286008E-03
   1       -3.2533
   2       -3.2186
   3       -3.1567
   4       -3.1283
   5       -3.1283
   6       -3.0790
   7       -2.8502
   8       -2.8502
   9       -2.6848
  10       -2.6848
  11       -2.1700
  12       -2.1700
  13       -2.0661
  14       -2.0661
  15       -2.0031
  16       -2.0031
  17       -1.9148
  18       -1.8367
  19       -1.7970
  20       -1.5711
  21       -1.4392
  22       -1.4392
  23        6.0862
  24        6.0862
  25        6.5463
  26        6.5463
  27        6.6410
  28        6.6410
  29        8.1520
  30        8.1520
  31       13.3445
  32       13.3445
 
  0.5000000E+00  0.0000000E+00  0.0000000E+00  0.6430041E-04
   1       -3.2258
   2       -3.2258
   3       -3.1232
   4       -3.1232
   5       -3.1180
   6       -3.1180
   7       -2.7692
   8       -2.7692
   9       -2.7692
  10       -2.7692
  11       -2.1186
  12       -2.1186
  13       -2.1186
  14       -2.1186
  15       -2.0078
  16       -2.0078
  17       -1.8169
  18       -1.8169
  19       -1.7594
  20       -1.7594
  21       -1.4392
  22       -1.4392
  23        6.3609
  24        6.3609
  25        6.3609
  26        6.3609
  27        6.5522
  28        6.5522
  29        8.1352
  30        8.1352
  31       13.6338
  32       13.6338
 
  0.2777778E-01  0.2777778E-01  0.0000000E+00  0.2572016E-03
   1       -4.5398
   2       -3.5955
   3       -3.5955
   4       -3.5950
   5       -3.5448
   6       -3.5448
   7       -3.5438
   8       -2.6571
   9       -2.6522
  10       -2.6510
  11       -2.0432
  12       -2.0405
  13       -1.5897
  14       -1.5884
  15       -1.5884
  16       -1.4530
  17       -1.4503
  18       -1.4503
  19       -1.4426
  20       -1.4426
  21       -1.4418
  22        3.1484
  23        3.1484
  24        3.2298
  25        6.1568
  26        6.2342
  27        6.2342
  28       10.5405
  29       10.6581
  30       10.6581
  31       10.6583
  32       10.6583
 
  0.5555556E-01  0.2777778E-01  0.0000000E+00  0.5144033E-03
   1       -4.5205
   2       -3.5890
   3       -3.5872
   4       -3.5870
   5       -3.5401
   6       -3.5374
   7       -3.5361
   8       -2.6620
   9       -2.6472
  10       -2.6455
  11       -2.0480
  12       -2.0385
  13       -1.5968
  14       -1.5957
  15       -1.5913
  16       -1.4746
  17       -1.4728
  18       -1.4589
  19       -1.4515
  20       -1.4428
  21       -1.4426
  22        2.9634
  23        3.1883
  24        3.2701
  25        6.1620
  26        6.2399
  27        6.4528
  28       10.3846
  29       10.5698
  30       10.5702
  31       10.6874
  32       10.6886
 
  0.8333333E-01  0.2777778E-01  0.0000000E+00  0.5144033E-03
   1       -4.4883
   2       -3.5782
   3       -3.5737
   4       -3.5733
   5       -3.5322
   6       -3.5250
   7       -3.5232
   8       -2.6709
   9       -2.6382
  10       -2.6364
  11       -2.0568
  12       -2.0343
  13       -1.6085
  14       -1.6081
  15       -1.5962
  16       -1.5113
  17       -1.5093
  18       -1.4730
  19       -1.4661
  20       -1.4430
  21       -1.4426
  22        2.6993
  23        3.2537
  24        3.3364
  25        6.1707
  26        6.2496
  27        6.7730
  28       10.1909
  29       10.4298
  30       10.4347
  31       10.6179
  32       10.7394
 
  0.1111111E+00  0.2777778E-01  0.0000000E+00  0.5144033E-03
   1       -4.4436
   2       -3.5632
   3       -3.5553
   4       -3.5543
   5       -3.5213
   6       -3.5077
   7       -3.5052
   8       -2.6834
   9       -2.6254
  10       -2.6237
  11       -2.0688
  12       -2.0285
  13       -1.6260
  14       -1.6247
  15       -1.6032
  16       -1.5611
  17       -1.5578
  18       -1.4924
  19       -1.4863
  20       -1.4431
  21       -1.4426
  22        2.3895
  23        3.3433
  24        3.4271
  25        6.1830
  26        6.2632
  27        7.1613
  28        9.9700
  29       10.2474
  30       10.2639
  31       10.4978
  32       10.8101
 
  0.1388889E+00  0.2777778E-01  0.0000000E+00  0.5144033E-03
   1       -4.3865
   2       -3.5444
   3       -3.5322
   4       -3.5303
   5       -3.5073
   6       -3.4854
   7       -3.4822
   8       -2.6994
   9       -2.6091
  10       -2.6074
  11       -2.0838
  12       -2.0210
  13       -1.6524
  14       -1.6452
  15       -1.6223
  16       -1.6135
  17       -1.6123
  18       -1.5166
  19       -1.5117
  20       -1.4431
  21       -1.4426
  22        2.0560
  23        3.4553
  24        3.5409
  25        6.1987
  26        6.2807
  27        7.5959
  28        9.7304
  29       10.0317
  30       10.0698
  31       10.3378
  32       10.9002
 
  0.1666667E+00  0.2777778E-01  0.0000000E+00  0.5144033E-03
   1       -4.3174
   2       -3.5218
   3       -3.5047
   4       -3.5017
   5       -3.4905
   6       -3.4583
   7       -3.4540
   8       -2.7185
   9       -2.5891
  10       -2.5876
  11       -2.1011
  12       -2.0120
  13       -1.7032
  14       -1.6930
  15       -1.6696
  16       -1.6583
  17       -1.6239
  18       -1.5448
  19       -1.5420
  20       -1.4431
  21       -1.4426
  22        1.7121
  23        3.5880
  24        3.6757
  25        6.2179
  26        6.3022
  27        8.0635
  28        9.4789
  29        9.7908
  30        9.8624
  31       10.1490
  32       11.0095
 
  0.1944444E+00  0.2777778E-01  0.0000000E+00  0.5144033E-03
   1       -4.2368
   2       -3.4959
   3       -3.4732
   4       -3.4708
   5       -3.4690
   6       -3.4262
   7       -3.4210
   8       -2.7407
   9       -2.5658
  10       -2.5644
  11       -2.1201
  12       -2.0015
  13       -1.7774
  14       -1.7716
  15       -1.6978
  16       -1.6911
  17       -1.6388
  18       -1.5768
  19       -1.5758
  20       -1.4430
  21       -1.4425
  22        1.3657
  23        3.7394
  24        3.8297
  25        6.2406
  26        6.3277
  27        8.5562
  28        9.2202
  29        9.5313
  30        9.6498
  31        9.9414
  32       11.1381
 
  0.2222222E+00  0.2777778E-01  0.0000000E+00  0.5144033E-03
   1       -4.1455
   2       -3.4670
   3       -3.4484
   4       -3.4380
   5       -3.4328
   6       -3.3893
   7       -3.3833
   8       -2.7658
   9       -2.5390
  10       -2.5380
  11       -2.1399
  12       -1.9895
  13       -1.8609
  14       -1.8563
  15       -1.7292
  16       -1.7240
  17       -1.6592
  18       -1.6157
  19       -1.6068
  20       -1.4430
  21       -1.4425
  22        1.0221
  23        3.9075
  24        4.0013
  25        6.2665
  26        6.3572
  27        8.9577
  28        9.0689
  29        9.2584
  30        9.4381
  31        9.7238
  32       11.2835
 
  0.2500000E+00  0.2777778E-01  0.0000000E+00  0.5144033E-03
   1       -4.0445
   2       -3.4357
   3       -3.4235
   4       -3.3997
   5       -3.3939
   6       -3.3476
   7       -3.3411
   8       -2.7935
   9       -2.5090
  10       -2.5085
  11       -2.1592
  12       -1.9763
  13       -1.9496
  14       -1.9455
  15       -1.7632
  16       -1.7588
  17       -1.6885
  18       -1.6582
  19       -1.6338
  20       -1.4429
  21       -1.4425
  22        0.6845
  23        4.0905
  24        4.1885
  25        6.2953
  26        6.3905
  27        8.6934
  28        8.9762
  29        9.2321
  30        9.5033
  31        9.5984
  32       11.4474
 
  0.2777778E+00  0.2777778E-01  0.0000000E+00  0.5144033E-03
   1       -3.9352
   2       -3.4024
   3       -3.3962
   4       -3.3592
   5       -3.3531
   6       -3.3012
   7       -3.2945
   8       -2.8236
   9       -2.4761
  10       -2.4759
  11       -2.1762
  12       -2.0416
  13       -2.0378
  14       -1.9617
  15       -1.7991
  16       -1.7953
  17       -1.7270
  18       -1.7037
  19       -1.6561
  20       -1.4429
  21       -1.4425
  22        0.3554
  23        4.2868
  24        4.3900
  25        6.3266
  26        6.4273
  27        8.4285
  28        8.6878
  29        9.0358
  30        9.2859
  31       10.1423
  32       11.6278
 
  0.3055556E+00  0.2777778E-01  0.0000000E+00  0.5144033E-03
   1       -3.8197
   2       -3.3681
   3       -3.3667
   4       -3.3173
   5       -3.3115
   6       -3.2500
   7       -3.2438
   8       -2.8558
   9       -2.4413
  10       -2.4397
  11       -2.1883
  12       -2.1355
  13       -2.1320
  14       -1.9460
  15       -1.8360
  16       -1.8326
  17       -1.7716
  18       -1.7518
  19       -1.6759
  20       -1.4428
  21       -1.4424
  22        0.0368
  23        4.4946
  24        4.6042
  25        6.3593
  26        6.4671
  27        8.1642
  28        8.3957
  29        8.8523
  30        9.0771
  31       10.6988
  32       11.8246
 
  0.3333333E+00  0.2777778E-01  0.0000000E+00  0.5144033E-03
   1       -3.7011
   2       -3.3352
   3       -3.3336
   4       -3.2755
   5       -3.2703
   6       -3.1942
   7       -3.1888
   8       -2.8899
   9       -2.4045
  10       -2.4007
  11       -2.2302
  12       -2.2269
  13       -2.1920
  14       -1.9293
  15       -1.8728
  16       -1.8699
  17       -1.8199
  18       -1.8019
  19       -1.6951
  20       -1.4427
  21       -1.4424
  22       -0.2697
  23        4.7125
  24        4.8299
  25        6.3919
  26        6.5092
  27        7.9014
  28        8.1017
  29        8.6848
  30        8.8813
  31       11.2658
  32       12.0379
 
  0.3611111E+00  0.2777778E-01  0.0000000E+00  0.5144033E-03
   1       -3.5837
   2       -3.3018
   3       -3.3000
   4       -3.2352
   5       -3.2309
   6       -3.1339
   7       -3.1296
   8       -2.9255
   9       -2.3665
  10       -2.3590
  11       -2.3247
  12       -2.3216
  13       -2.1820
  14       -1.9117
  15       -1.9082
  16       -1.9057
  17       -1.8707
  18       -1.8536
  19       -1.7144
  20       -1.4427
  21       -1.4424
  22       -0.5625
  23        4.9390
  24        5.0661
  25        6.4216
  26        6.5525
  27        7.6420
  28        7.8075
  29        8.5362
  30        8.7028
  31       11.8389
  32       12.2627
 
  0.3888889E+00  0.2777778E-01  0.0000000E+00  0.5144033E-03
   1       -3.4733
   2       -3.2690
   3       -3.2669
   4       -3.1983
   5       -3.1950
   6       -3.0691
   7       -3.0661
   8       -2.9624
   9       -2.4182
  10       -2.4154
  11       -2.3275
  12       -2.3149
  13       -2.1526
  14       -1.9407
  15       -1.9386
  16       -1.9231
  17       -1.9063
  18       -1.8932
  19       -1.7340
  20       -1.4426
  21       -1.4424
  22       -0.8397
  23        5.1723
  24        5.3116
  25        6.4432
  26        6.5954
  27        7.3897
  28        7.5142
  29        8.4100
  30        8.5454
  31       12.3821
  32       12.5011
 
  0.4166667E+00  0.2777778E-01  0.0000000E+00  0.5144033E-03
   1       -3.3769
   2       -3.2425
   3       -3.2307
   4       -3.1668
   5       -3.1644
   6       -3.0003
   7       -3.0001
   8       -2.9982
   9       -2.5100
  10       -2.5075
  11       -2.2859
  12       -2.2685
  13       -2.0979
  14       -1.9765
  15       -1.9685
  16       -1.9669
  17       -1.9597
  18       -1.8741
  19       -1.7540
  20       -1.4425
  21       -1.4424
  22       -1.0991
  23        5.4105
  24        5.5656
  25        6.4464
  26        6.6363
  27        7.1531
  28        7.2229
  29        8.3098
  30        8.4129
  31       12.7213
  32       12.7532
 
  0.4444444E+00  0.2777778E-01  0.0000000E+00  0.5144033E-03
   1       -3.3010
   2       -3.2233
   3       -3.1933
   4       -3.1424
   5       -3.1409
   6       -3.0388
   7       -2.9269
   8       -2.9261
   9       -2.5995
  10       -2.5975
  11       -2.2403
  12       -2.2202
  13       -2.0305
  14       -2.0131
  15       -2.0131
  16       -1.9899
  17       -1.9888
  18       -1.8543
  19       -1.7742
  20       -1.4425
  21       -1.4424
  22       -1.3380
  23        5.6508
  24        5.8273
  25        6.4087
  26        6.6739
  27        6.9346
  28        6.9527
  29        8.2395
  30        8.3092
  31       12.9954
  32       13.0173
 
  0.4722222E+00  0.2777778E-01  0.0000000E+00  0.5144033E-03
   1       -3.2495
   2       -3.2150
   3       -3.1552
   4       -3.1269
   5       -3.1262
   6       -3.0776
   7       -2.8499
   8       -2.8498
   9       -2.6863
  10       -2.6848
  11       -2.1905
  12       -2.1702
  13       -2.0845
  14       -2.0663
  15       -2.0034
  16       -2.0028
  17       -1.8951
  18       -1.8334
  19       -1.7947
  20       -1.5527
  21       -1.4425
  22       -1.4424
  23        5.8880
  24        6.0957
  25        6.2970
  26        6.6502
  27        6.7092
  28        6.8188
  29        8.2027
  30        8.2379
  31       13.2729
  32       13.2922
 
  0.5000000E+00  0.2777778E-01  0.0000000E+00  0.2572016E-03
   1       -3.2221
   2       -3.2221
   3       -3.1214
   4       -3.1214
   5       -3.1165
   6       -3.1165
   7       -2.7698
   8       -2.7698
   9       -2.7690
  10       -2.7690
  11       -2.1381
  12       -2.1381
  13       -2.1187
  14       -2.1187
  15       -2.0078
  16       -2.0078
  17       -1.8158
  18       -1.8158
  19       -1.7385
  20       -1.7385
  21       -1.4424
  22       -1.4424
  23        6.1116
  24        6.1116
  25        6.3703
  26        6.3703
  27        6.7497
  28        6.7497
  29        8.2020
  30        8.2020
  31       13.5589
  32       13.5674
 
  0.5555556E-01  0.5555556E-01  0.0000000E+00  0.2572016E-03
   1       -4.5012
   2       -3.5806
   3       -3.5806
   4       -3.5798
   5       -3.5327
   6       -3.5327
   7       -3.5276
   8       -2.6644
   9       -2.6448
  10       -2.6401
  11       -2.0500
  12       -2.0392
  13       -1.6038
  14       -1.5996
  15       -1.5996
  16       -1.4918
  17       -1.4806
  18       -1.4806
  19       -1.4515
  20       -1.4515
  21       -1.4480
  22        3.0019
  23        3.0019
  24        3.3101
  25        6.1672
  26        6.4597
  27        6.4597
  28       10.1725
  29       10.5999
  30       10.5999
  31       10.6002
  32       10.6002
 
  0.8333333E-01  0.5555556E-01  0.0000000E+00  0.5144033E-03
   1       -4.4692
   2       -3.5698
   3       -3.5680
   4       -3.5668
   5       -3.5249
   6       -3.5203
   7       -3.5134
   8       -2.6717
   9       -2.6372
  10       -2.6312
  11       -2.0572
  12       -2.0363
  13       -1.6153
  14       -1.6139
  15       -1.6061
  16       -1.5253
  17       -1.5151
  18       -1.4931
  19       -1.4661
  20       -1.4515
  21       -1.4509
  22        2.7366
  23        3.0652
  24        3.3758
  25        6.1758
  26        6.4713
  27        6.7809
  28        9.9342
  29       10.4594
  30       10.4640
  31       10.6500
  32       10.6500
 
  0.1111111E+00  0.5555556E-01  0.0000000E+00  0.5144033E-03
   1       -4.4247
   2       -3.5548
   3       -3.5515
   4       -3.5477
   5       -3.5140
   6       -3.5031
   7       -3.4938
   8       -2.6835
   9       -2.6251
  10       -2.6187
  11       -2.0686
  12       -2.0307
  13       -1.6361
  14       -1.6313
  15       -1.6156
  16       -1.5731
  17       -1.5591
  18       -1.5100
  19       -1.4863
  20       -1.4521
  21       -1.4515
  22        2.4259
  23        3.1516
  24        3.4658
  25        6.1877
  26        6.4875
  27        7.1698
  28        9.6787
  29       10.2764
  30       10.2925
  31       10.7139
  32       10.7194
 
  0.1388889E+00  0.5555556E-01  0.0000000E+00  0.5144033E-03
   1       -4.3679
   2       -3.5359
   3       -3.5306
   4       -3.5236
   5       -3.5002
   6       -3.4810
   7       -3.4689
   8       -2.6990
   9       -2.6090
  10       -2.6028
  11       -2.0831
  12       -2.0231
  13       -1.6715
  14       -1.6515
  15       -1.6329
  16       -1.6285
  17       -1.6057
  18       -1.5303
  19       -1.5117
  20       -1.4527
  21       -1.4515
  22        2.0918
  23        3.2596
  24        3.5787
  25        6.2031
  26        6.5085
  27        7.6045
  28        9.4128
  29       10.0601
  30       10.0979
  31       10.6098
  32       10.8085
 
  0.1666667E+00  0.5555556E-01  0.0000000E+00  0.5144033E-03
   1       -4.2991
   2       -3.5132
   3       -3.5053
   4       -3.4950
   5       -3.4834
   6       -3.4539
   7       -3.4389
   8       -2.7178
   9       -2.5893
  10       -2.5835
  11       -2.1000
  12       -2.0138
  13       -1.7267
  14       -1.7024
  15       -1.6757
  16       -1.6459
  17       -1.6458
  18       -1.5530
  19       -1.5421
  20       -1.4530
  21       -1.4515
  22        1.7476
  23        3.3870
  24        3.7126
  25        6.2217
  26        6.5342
  27        8.0716
  28        9.1418
  29        9.8186
  30        9.8904
  31       10.4642
  32       10.9165
 
  0.1944444E+00  0.5555556E-01  0.0000000E+00  0.5144033E-03
   1       -4.2190
   2       -3.4872
   3       -3.4759
   4       -3.4639
   5       -3.4622
   6       -3.4220
   7       -3.4042
   8       -2.7397
   9       -2.5660
  10       -2.5609
  11       -2.1185
  12       -2.0029
  13       -1.7984
  14       -1.7798
  15       -1.7036
  16       -1.6810
  17       -1.6682
  18       -1.5770
  19       -1.5766
  20       -1.4531
  21       -1.4515
  22        1.4013
  23        3.5320
  24        3.8658
  25        6.2433
  26        6.5646
  27        8.5632
  28        8.8697
  29        9.5586
  30        9.6781
  31       10.2884
  32       11.0421
 
  0.2222222E+00  0.5555556E-01  0.0000000E+00  0.5144033E-03
   1       -4.1282
   2       -3.4583
   3       -3.4426
   4       -3.4417
   5       -3.4260
   6       -3.3853
   7       -3.3651
   8       -2.7645
   9       -2.5393
  10       -2.5354
  11       -2.1375
  12       -1.9904
  13       -1.8796
  14       -1.8634
  15       -1.7346
  16       -1.7158
  17       -1.6968
  18       -1.6159
  19       -1.5996
  20       -1.4531
  21       -1.4516
  22        1.0579
  23        3.6924
  24        4.0363
  25        6.2675
  26        6.5995
  27        8.5995
  28        9.0743
  29        9.2854
  30        9.4673
  31       10.0927
  32       11.1853
 
  0.2500000E+00  0.5555556E-01  0.0000000E+00  0.5144033E-03
   1       -4.0277
   2       -3.4268
   3       -3.4169
   4       -3.4058
   5       -3.3870
   6       -3.3438
   7       -3.3221
   8       -2.7919
   9       -2.5094
  10       -2.5073
  11       -2.1556