 running on    8 nodes
 distr:  one band on    1 nodes,    8 groups
 vasp.4.6.28 25Jul05 complex 
 POSCAR found :  1 types and    4 ions
 WARNING: PSMAXN for non-local potential too small
 LDA part: xc-table for Pade appr. of Perdew
 POSCAR, INCAR and KPOINTS ok, starting setup
 FFT: planning ...           1
 reading WAVECAR
 WARNING: random wavefunctions but no delay for mixing, default for NELMDL
 entering main loop
       N       E                     dE             d eps       ncg     rms          rms(c)
DAV:   1     0.567517737181E+03    0.56752E+03   -0.30387E+04 85120   0.223E+03
DAV:   2     0.825057854130E+01   -0.55927E+03   -0.51284E+03 85136   0.476E+02
DAV:   3    -0.127047679235E+02   -0.20955E+02   -0.20421E+02100360   0.107E+02
DAV:   4    -0.129302609360E+02   -0.22549E+00   -0.22530E+00 92264   0.999E+00
DAV:   5    -0.129320837670E+02   -0.18228E-02   -0.18226E-02101936   0.846E-01    0.502E+00
DAV:   6    -0.121388875235E+02    0.79320E+00   -0.21410E+00 95592   0.129E+01    0.119E+00
DAV:   7    -0.121191722525E+02    0.19715E-01   -0.76750E-02 94528   0.178E+00    0.628E-01
DAV:   8    -0.121155192647E+02    0.36530E-02   -0.61572E-03 93056   0.710E-01    0.445E-02
DAV:   9    -0.121156313621E+02   -0.11210E-03   -0.22171E-04100464   0.105E-01    0.259E-02
DAV:  10    -0.121156366233E+02   -0.52613E-05   -0.23730E-05 94768   0.302E-02    0.263E-03
DAV:  11    -0.121156375390E+02   -0.91564E-06   -0.94682E-07 99216   0.703E-03    0.114E-03
DAV:  12    -0.121156370657E+02    0.47328E-06   -0.89644E-08 95504   0.269E-03    0.108E-04
DAV:  13    -0.121156370572E+02    0.84419E-08   -0.55053E-10 62832   0.212E-04
   1 F= -.12115637E+02 E0= -.12115607E+02  d E =-.592417E-04
