   4   4   0   0
  0.2226284E+02  0.4465604E-09  0.4465604E-09  0.4465604E-09  0.5000000E-15
  1.000000000000000E-004
  CAR 
 unknown system                          
     18.38238583     -5.67024547  301      2.78197778      1.00000000
     -5.670  0.0000E+00  0.0000E+00
     -5.590  0.0000E+00  0.0000E+00
     -5.510  0.0000E+00  0.0000E+00
     -5.430  0.0000E+00  0.0000E+00
     -5.350  0.0000E+00  0.0000E+00
     -5.269  0.0000E+00  0.0000E+00
     -5.189  0.0000E+00  0.0000E+00
     -5.109  0.0000E+00  0.0000E+00
     -5.029  0.0000E+00  0.0000E+00
     -4.949  0.0000E+00  0.0000E+00
     -4.868  0.0000E+00  0.0000E+00
     -4.788  0.0000E+00  0.0000E+00
     -4.708  0.0000E+00  0.0000E+00
     -4.628  0.1441E-15  0.1155E-16
     -4.548  0.1811E-01  0.1452E-02
     -4.468  0.1140E+00  0.1077E-01
     -4.387  0.1758E+00  0.2504E-01
     -4.307  0.2083E+00  0.4247E-01
     -4.227  0.2315E+00  0.6239E-01
     -4.147  0.2873E+00  0.8684E-01
     -4.067  0.3106E+00  0.1125E+00
     -3.987  0.3510E+00  0.1415E+00
     -3.906  0.3629E+00  0.1715E+00
     -3.826  0.4370E+00  0.2081E+00
     -3.746  0.4294E+00  0.2436E+00
     -3.666  0.4905E+00  0.2839E+00
     -3.586  0.4639E+00  0.3218E+00
     -3.506  0.5577E+00  0.3675E+00
     -3.425  0.5934E+00  0.4155E+00
     -3.345  0.6109E+00  0.4664E+00
     -3.265  0.6028E+00  0.5154E+00
     -3.185  0.7216E+00  0.5762E+00
     -3.105  0.7197E+00  0.6352E+00
     -3.024  0.7657E+00  0.6981E+00
     -2.944  0.8723E+00  0.7690E+00
     -2.864  0.9501E+00  0.8472E+00
     -2.784  0.9207E+00  0.9230E+00
     -2.704  0.1177E+01  0.1021E+01
     -2.624  0.1312E+01  0.1128E+01
     -2.543  0.1461E+01  0.1248E+01
     -2.463  0.2495E+01  0.1454E+01
     -2.383  0.3363E+01  0.1734E+01
     -2.303  0.3400E+01  0.2018E+01
     -2.223  0.3657E+01  0.2320E+01
     -2.143  0.4650E+01  0.2710E+01
     -2.062  0.6629E+01  0.3254E+01
     -1.982  0.8130E+01  0.3930E+01
     -1.902  0.9981E+01  0.4756E+01
     -1.822  0.1093E+02  0.5665E+01
     -1.742  0.1033E+02  0.6529E+01
     -1.661  0.9478E+01  0.7320E+01
     -1.581  0.8992E+01  0.8071E+01
     -1.501  0.8970E+01  0.8813E+01
     -1.421  0.8280E+01  0.9501E+01
     -1.341  0.6930E+01  0.1008E+02
     -1.261  0.7046E+01  0.1066E+02
     -1.180  0.9556E+01  0.1146E+02
     -1.100  0.1145E+02  0.1241E+02
     -1.020  0.1278E+02  0.1347E+02
     -0.940  0.1280E+02  0.1453E+02
     -0.860  0.1228E+02  0.1555E+02
     -0.780  0.1173E+02  0.1653E+02
     -0.699  0.1350E+02  0.1766E+02
     -0.619  0.1549E+02  0.1894E+02
     -0.539  0.2092E+02  0.2067E+02
     -0.459  0.1753E+02  0.2215E+02
     -0.379  0.1318E+02  0.2325E+02
     -0.298  0.1022E+02  0.2411E+02
     -0.218  0.1009E+02  0.2495E+02
     -0.138  0.1035E+02  0.2582E+02
     -0.058  0.1082E+02  0.2672E+02
      0.022  0.1259E+02  0.2777E+02
      0.102  0.1274E+02  0.2883E+02
      0.183  0.1424E+02  0.3001E+02
      0.263  0.1281E+02  0.3108E+02
      0.343  0.1142E+02  0.3204E+02
      0.423  0.1083E+02  0.3293E+02
      0.503  0.1057E+02  0.3381E+02
      0.583  0.1049E+02  0.3469E+02
      0.664  0.1092E+02  0.3559E+02
      0.744  0.1172E+02  0.3657E+02
      0.824  0.1436E+02  0.3775E+02
      0.904  0.1916E+02  0.3935E+02
      0.984  0.1602E+02  0.4069E+02
      1.064  0.9112E+01  0.4145E+02
      1.145  0.4788E+01  0.4185E+02
      1.225  0.1569E+01  0.4198E+02
      1.305  0.1463E+01  0.4210E+02
      1.385  0.1057E+01  0.4219E+02
      1.465  0.1424E+01  0.4231E+02
      1.546  0.1310E+01  0.4242E+02
      1.626  0.1076E+01  0.4251E+02
      1.706  0.1473E+01  0.4263E+02
      1.786  0.9676E+00  0.4271E+02
      1.866  0.1558E+01  0.4284E+02
      1.946  0.9651E+00  0.4292E+02
      2.027  0.1444E+01  0.4304E+02
      2.107  0.1024E+01  0.4312E+02
      2.187  0.1415E+01  0.4324E+02
      2.267  0.1101E+01  0.4333E+02
      2.347  0.1359E+01  0.4344E+02
      2.427  0.1114E+01  0.4354E+02
      2.508  0.1347E+01  0.4365E+02
      2.588  0.1156E+01  0.4375E+02
      2.668  0.1216E+01  0.4384E+02
      2.748  0.1275E+01  0.4395E+02
      2.828  0.1289E+01  0.4406E+02
      2.909  0.1307E+01  0.4416E+02
      2.989  0.1314E+01  0.4427E+02
      3.069  0.1273E+01  0.4438E+02
      3.149  0.1384E+01  0.4449E+02
      3.229  0.1172E+01  0.4459E+02
      3.309  0.1373E+01  0.4470E+02
      3.390  0.1266E+01  0.4481E+02
      3.470  0.1281E+01  0.4491E+02
      3.550  0.1297E+01  0.4502E+02
      3.630  0.1228E+01  0.4513E+02
      3.710  0.1347E+01  0.4524E+02
      3.790  0.1267E+01  0.4534E+02
      3.871  0.1258E+01  0.4545E+02
      3.951  0.1125E+01  0.4554E+02
      4.031  0.1398E+01  0.4566E+02
      4.111  0.1245E+01  0.4576E+02
      4.191  0.1329E+01  0.4587E+02
      4.272  0.1130E+01  0.4597E+02
      4.352  0.1351E+01  0.4608E+02
      4.432  0.1174E+01  0.4618E+02
      4.512  0.1351E+01  0.4629E+02
      4.592  0.1349E+01  0.4640E+02
      4.672  0.1368E+01  0.4652E+02
      4.753  0.2026E+01  0.4669E+02
      4.833  0.1781E+01  0.4683E+02
      4.913  0.1863E+01  0.4699E+02
      4.993  0.1761E+01  0.4714E+02
      5.073  0.1652E+01  0.4727E+02
      5.153  0.1682E+01  0.4741E+02
      5.234  0.1481E+01  0.4753E+02
      5.314  0.1560E+01  0.4766E+02
      5.394  0.1293E+01  0.4777E+02
      5.474  0.1463E+01  0.4789E+02
      5.554  0.1248E+01  0.4800E+02
      5.634  0.1334E+01  0.4811E+02
      5.715  0.1281E+01  0.4822E+02
      5.795  0.1204E+01  0.4832E+02
      5.875  0.1150E+01  0.4841E+02
      5.955  0.1282E+01  0.4852E+02
      6.035  0.1050E+01  0.4861E+02
      6.116  0.1153E+01  0.4870E+02
      6.196  0.9425E+00  0.4878E+02
      6.276  0.1008E+01  0.4886E+02
      6.356  0.1015E+01  0.4894E+02
      6.436  0.8367E+00  0.4901E+02
      6.516  0.9040E+00  0.4909E+02
      6.597  0.1381E+01  0.4920E+02
      6.677  0.1238E+01  0.4931E+02
      6.757  0.1696E+01  0.4945E+02
      6.837  0.1399E+01  0.4957E+02
      6.917  0.1604E+01  0.4970E+02
      6.997  0.1516E+01  0.4983E+02
      7.078  0.1736E+01  0.4997E+02
      7.158  0.1870E+01  0.5013E+02
      7.238  0.1383E+01  0.5025E+02
      7.318  0.1489E+01  0.5038E+02
      7.398  0.1543E+01  0.5051E+02
      7.479  0.1654E+01  0.5065E+02
      7.559  0.1915E+01  0.5080E+02
      7.639  0.1411E+01  0.5092E+02
      7.719  0.1376E+01  0.5104E+02
      7.799  0.1452E+01  0.5116E+02
      7.879  0.1575E+01  0.5129E+02
      7.960  0.1717E+01  0.5143E+02
      8.040  0.1257E+01  0.5154E+02
      8.120  0.1357E+01  0.5165E+02
      8.200  0.1341E+01  0.5177E+02
      8.280  0.1182E+01  0.5186E+02
      8.360  0.1383E+01  0.5198E+02
      8.441  0.1341E+01  0.5209E+02
      8.521  0.1193E+01  0.5219E+02
      8.601  0.1205E+01  0.5228E+02
      8.681  0.1566E+01  0.5241E+02
      8.761  0.1239E+01  0.5252E+02
      8.842  0.1347E+01  0.5263E+02
      8.922  0.1668E+01  0.5276E+02
      9.002  0.1657E+01  0.5290E+02
      9.082  0.1216E+01  0.5300E+02
      9.162  0.1371E+01  0.5312E+02
      9.242  0.1599E+01  0.5325E+02
      9.323  0.1537E+01  0.5338E+02
      9.403  0.1538E+01  0.5350E+02
      9.483  0.1515E+01  0.5363E+02
      9.563  0.1317E+01  0.5374E+02
      9.643  0.1889E+01  0.5389E+02
      9.723  0.1402E+01  0.5401E+02
      9.804  0.1599E+01  0.5414E+02
      9.884  0.1352E+01  0.5425E+02
      9.964  0.1273E+01  0.5436E+02
     10.044  0.1859E+01  0.5451E+02
     10.124  0.1766E+01  0.5466E+02
     10.204  0.1194E+01  0.5476E+02
     10.285  0.1467E+01  0.5488E+02
     10.365  0.1635E+01  0.5502E+02
     10.445  0.1576E+01  0.5515E+02
     10.525  0.1616E+01  0.5528E+02
     10.605  0.1590E+01  0.5541E+02
     10.686  0.1429E+01  0.5553E+02
     10.766  0.1538E+01  0.5566E+02
     10.846  0.1434E+01  0.5578E+02
     10.926  0.1902E+01  0.5594E+02
     11.006  0.1795E+01  0.5609E+02
     11.086  0.1626E+01  0.5622E+02
     11.167  0.1616E+01  0.5636E+02
     11.247  0.2028E+01  0.5652E+02
     11.327  0.1620E+01  0.5666E+02
     11.407  0.2192E+01  0.5684E+02
     11.487  0.1679E+01  0.5698E+02
     11.567  0.1829E+01  0.5714E+02
     11.648  0.1943E+01  0.5730E+02
     11.728  0.1885E+01  0.5745E+02
     11.808  0.2332E+01  0.5764E+02
     11.888  0.2036E+01  0.5782E+02
     11.968  0.1826E+01  0.5797E+02
     12.049  0.2379E+01  0.5816E+02
     12.129  0.2070E+01  0.5834E+02
     12.209  0.2239E+01  0.5853E+02
     12.289  0.2363E+01  0.5872E+02
     12.369  0.1989E+01  0.5889E+02
     12.449  0.2255E+01  0.5907E+02
     12.530  0.2117E+01  0.5925E+02
     12.610  0.1974E+01  0.5941E+02
     12.690  0.2112E+01  0.5959E+02
     12.770  0.2337E+01  0.5978E+02
     12.850  0.1835E+01  0.5994E+02
     12.930  0.2110E+01  0.6011E+02
     13.011  0.1880E+01  0.6027E+02
     13.091  0.1811E+01  0.6043E+02
     13.171  0.2161E+01  0.6060E+02
     13.251  0.2036E+01  0.6078E+02
     13.331  0.1766E+01  0.6092E+02
     13.412  0.1829E+01  0.6108E+02
     13.492  0.2204E+01  0.6126E+02
     13.572  0.1478E+01  0.6139E+02
     13.652  0.1811E+01  0.6154E+02
     13.732  0.1953E+01  0.6170E+02
     13.812  0.1536E+01  0.6182E+02
     13.893  0.1457E+01  0.6194E+02
     13.973  0.1468E+01  0.6206E+02
     14.053  0.1039E+01  0.6215E+02
     14.133  0.1456E+01  0.6227E+02
     14.213  0.9613E+00  0.6235E+02
     14.293  0.1140E+01  0.6245E+02
     14.374  0.1210E+01  0.6254E+02
     14.454  0.9189E+00  0.6262E+02
     14.534  0.8707E+00  0.6269E+02
     14.614  0.1126E+01  0.6278E+02
     14.694  0.8028E+00  0.6285E+02
     14.774  0.8339E+00  0.6292E+02
     14.855  0.9225E+00  0.6299E+02
     14.935  0.5793E+00  0.6304E+02
     15.015  0.7664E+00  0.6311E+02
     15.095  0.7374E+00  0.6317E+02
     15.175  0.4382E+00  0.6321E+02
     15.256  0.7016E+00  0.6326E+02
     15.336  0.6003E+00  0.6332E+02
     15.416  0.4159E+00  0.6335E+02
     15.496  0.6584E+00  0.6340E+02
     15.576  0.4842E+00  0.6345E+02
     15.656  0.2720E+00  0.6347E+02
     15.737  0.6443E+00  0.6352E+02
     15.817  0.3311E+00  0.6355E+02
     15.897  0.3501E+00  0.6358E+02
     15.977  0.5528E+00  0.6362E+02
     16.057  0.2806E+00  0.6365E+02
     16.137  0.4202E+00  0.6368E+02
     16.218  0.3531E+00  0.6371E+02
     16.298  0.2058E+00  0.6373E+02
     16.378  0.4559E+00  0.6377E+02
     16.458  0.2207E+00  0.6379E+02
     16.538  0.2633E+00  0.6381E+02
     16.619  0.3186E+00  0.6383E+02
     16.699  0.2105E+00  0.6385E+02
     16.779  0.3043E+00  0.6388E+02
     16.859  0.2270E+00  0.6389E+02
     16.939  0.2241E+00  0.6391E+02
     17.019  0.2771E+00  0.6393E+02
     17.100  0.3382E+00  0.6396E+02
     17.180  0.3793E+00  0.6399E+02
     17.260  0.6081E-01  0.6400E+02
     17.340  0.4277E-02  0.6400E+02
     17.420  0.0000E+00  0.6400E+02
     17.500  0.0000E+00  0.6400E+02
     17.581  0.0000E+00  0.6400E+02
     17.661  0.0000E+00  0.6400E+02
     17.741  0.0000E+00  0.6400E+02
     17.821  0.0000E+00  0.6400E+02
     17.901  0.0000E+00  0.6400E+02
     17.982  0.0000E+00  0.6400E+02
     18.062  0.0000E+00  0.6400E+02
     18.142  0.0000E+00  0.6400E+02
     18.222  0.0000E+00  0.6400E+02
     18.302  0.0000E+00  0.6400E+02
     18.382  0.0000E+00  0.6400E+02
