    4    4    1    1
  0.2226284E+02  0.4465604E-09  0.4465604E-09  0.4465604E-09  0.5000000E-15
  1.000000000000000E-004
  CAR 
 unknown system                          
   44 1330   32
 
  0.0000000E+00  0.0000000E+00  0.0000000E+00  0.2143347E-04
   1       -4.5769
   2       -2.2459
   3       -2.2459
   4       -2.2459
   5       -2.0620
   6       -2.0620
   7       -2.0620
   8       -0.7627
   9       -0.7627
  10       -0.7627
  11        0.1758
  12        0.1758
  13        0.8900
  14        0.8900
  15        0.8900
  16        1.1191
  17        1.1191
  18        1.1192
  19        1.1192
  20        1.1192
  21        1.1192
  22        4.4908
  23        4.4908
  24        4.4908
  25        6.7412
  26        6.7412
  27        6.7412
  28       12.0810
  29       12.0810
  30       12.0810
  31       12.0810
  32       12.0810
 
  0.2777778E-01  0.0000000E+00  0.0000000E+00  0.1286008E-03
   1       -4.5698
   2       -2.2439
   3       -2.2417
   4       -2.2417
   5       -2.0598
   6       -2.0587
   7       -2.0587
   8       -0.7655
   9       -0.7600
  10       -0.7600
  11        0.1729
  12        0.1771
  13        0.8860
  14        0.8860
  15        0.8886
  16        1.1033
  17        1.1033
  18        1.1141
  19        1.1141
  20        1.1192
  21        1.1192
  22        4.3913
  23        4.5125
  24        4.5125
  25        6.7374
  26        6.7374
  27        6.8536
  28       12.0628
  29       12.0629
  30       12.0635
  31       12.0635
  32       12.0941
 
  0.5555556E-01  0.0000000E+00  0.0000000E+00  0.1286008E-03
   1       -4.5484
   2       -2.2378
   3       -2.2291
   4       -2.2291
   5       -2.0533
   6       -2.0486
   7       -2.0486
   8       -0.7739
   9       -0.7520
  10       -0.7520
  11        0.1641
  12        0.1809
  13        0.8739
  14        0.8739
  15        0.8843
  16        1.0571
  17        1.0571
  18        1.0990
  19        1.0990
  20        1.1192
  21        1.1192
  22        4.1370
  23        4.5760
  24        4.5760
  25        6.7263
  26        6.7263
  27        7.1463
  28       12.0088
  29       12.0088
  30       12.0129
  31       12.0129
  32       12.1333
 
  0.8333333E-01  0.0000000E+00  0.0000000E+00  0.1286008E-03
   1       -4.5128
   2       -2.2279
   3       -2.2081
   4       -2.2081
   5       -2.0423
   6       -2.0318
   7       -2.0318
   8       -0.7878
   9       -0.7387
  10       -0.7387
  11        0.1497
  12        0.1873
  13        0.8539
  14        0.8539
  15        0.8771
  16        0.9837
  17        0.9837
  18        1.0743
  19        1.0743
  20        1.1192
  21        1.1192
  22        3.8009
  23        4.6781
  24        4.6781
  25        6.7080
  26        6.7080
  27        7.5467
  28       11.9206
  29       11.9206
  30       11.9345
  31       11.9345
  32       12.1983
 
  0.1111111E+00  0.0000000E+00  0.0000000E+00  0.1286008E-03
   1       -4.4631
   2       -2.2147
   3       -2.1792
   4       -2.1792
   5       -2.0271
   6       -2.0084
   7       -2.0084
   8       -0.8070
   9       -0.7201
  10       -0.7201
  11        0.1299
  12        0.1961
  13        0.8261
  14        0.8261
  15        0.8672
  16        0.8879
  17        0.8879
  18        1.0402
  19        1.0402
  20        1.1193
  21        1.1193
  22        3.4292
  23        4.8142
  24        4.8142
  25        6.6832
  26        6.6832
  27        8.0087
  28       11.8005
  29       11.8005
  30       11.8352
  31       11.8352
  32       12.2885
 
  0.1388889E+00  0.0000000E+00  0.0000000E+00  0.1286008E-03
   1       -4.3995
   2       -2.1986
   3       -2.1426
   4       -2.1426
   5       -2.0077
   6       -1.9782
   7       -1.9782
   8       -0.8314
   9       -0.6964
  10       -0.6964
  11        0.1049
  12        0.2074
  13        0.7745
  14        0.7745
  15        0.7908
  16        0.7908
  17        0.8546
  18        0.9975
  19        0.9975
  20        1.1193
  21        1.1193
  22        3.0456
  23        4.9791
  24        4.9791
  25        6.6527
  26        6.6527
  27        8.5091
  28       11.6515
  29       11.6515
  30       11.7223
  31       11.7223
  32       12.4033
 
  0.1666667E+00  0.0000000E+00  0.0000000E+00  0.1286008E-03
   1       -4.3222
   2       -2.1805
   3       -2.0988
   4       -2.0988
   5       -1.9842
   6       -1.9414
   7       -1.9414
   8       -0.8607
   9       -0.6674
  10       -0.6674
  11        0.0751
  12        0.2211
  13        0.6481
  14        0.6481
  15        0.7483
  16        0.7483
  17        0.8394
  18        0.9468
  19        0.9468
  20        1.1194
  21        1.1194
  22        2.6622
  23        5.1683
  24        5.1683
  25        6.6173
  26        6.6173
  27        9.0362
  28       11.4767
  29       11.4767
  30       11.6028
  31       11.6028
  32       12.5417
 
  0.1944444E+00  0.0000000E+00  0.0000000E+00  0.1286008E-03
   1       -4.2315
   2       -2.1614
   3       -2.0486
   4       -2.0486
   5       -1.9567
   6       -1.8979
   7       -1.8979
   8       -0.8945
   9       -0.6334
  10       -0.6334
  11        0.0412
  12        0.2370
  13        0.5126
  14        0.5126
  15        0.6993
  16        0.6993
  17        0.8218
  18        0.8889
  19        0.8889
  20        1.1195
  21        1.1195
  22        2.2861
  23        5.3775
  24        5.3775
  25        6.5782
  26        6.5782
  27        9.5837
  28       11.2794
  29       11.2794
  30       11.4822
  31       11.4822
  32       12.7029
 
  0.2222222E+00  0.0000000E+00  0.0000000E+00  0.1286008E-03
   1       -4.1278
   2       -2.1429
   3       -1.9926
   4       -1.9926
   5       -1.9254
   6       -1.8478
   7       -1.8478
   8       -0.9326
   9       -0.5944
  10       -0.5944
  11        0.0037
  12        0.2551
  13        0.3712
  14        0.3712
  15        0.6443
  16        0.6443
  17        0.8019
  18        0.8248
  19        0.8248
  20        1.1195
  21        1.1195
  22        1.9220
  23        5.6034
  24        5.6034
  25        6.5366
  26        6.5366
  27       10.1480
  28       11.0626
  29       11.0626
  30       11.3650
  31       11.3650
  32       12.8856
 
  0.2500000E+00  0.0000000E+00  0.0000000E+00  0.1286008E-03
   1       -4.0116
   2       -2.1268
   3       -1.9319
   4       -1.9319
   5       -1.8905
   6       -1.7910
   7       -1.7910
   8       -0.9745
   9       -0.5505
  10       -0.5505
  11       -0.0366
  12        0.2267
  13        0.2267
  14        0.2752
  15        0.5843
  16        0.5843
  17        0.7554
  18        0.7554
  19        0.7799
  20        1.1196
  21        1.1196
  22        1.5737
  23        5.8431
  24        5.8431
  25        6.4938
  26        6.4938
  27       10.7266
  28       10.8293
  29       10.8293
  30       11.2543
  31       11.2543
  32       13.0888
 
  0.2777778E+00  0.0000000E+00  0.0000000E+00  0.1286008E-03
   1       -3.8836
   2       -2.1154
   3       -1.8677
   4       -1.8677
   5       -1.8521
   6       -1.7277
   7       -1.7277
   8       -1.0199
   9       -0.5019
  10       -0.5019
  11       -0.0786
  12        0.0809
  13        0.0809
  14        0.2973
  15        0.5205
  16        0.5205
  17        0.6815
  18        0.6815
  19        0.7560
  20        1.1197
  21        1.1197
  22        1.2448
  23        6.0944
  24        6.0944
  25        6.4512
  26        6.4512
  27       10.5821
  28       10.5821
  29       11.1524
  30       11.1524
  31       11.3179
  32       13.3111
 
  0.3055556E+00  0.0000000E+00  0.0000000E+00  0.1286008E-03
   1       -3.7445
   2       -2.1120
   3       -1.8105
   4       -1.8015
   5       -1.8015
   6       -1.6578
   7       -1.6578
   8       -1.0682
   9       -0.4487
  10       -0.4487
  11       -0.1211
  12       -0.0644
  13       -0.0644
  14        0.3211
  15        0.4544
  16        0.4544
  17        0.6041
  18        0.6041
  19        0.7304
  20        0.9389
  21        1.1198
  22        1.1198
  23        6.3552
  24        6.3552
  25        6.4101
  26        6.4101
  27       10.3234
  28       10.3234
  29       11.0610
  30       11.0610
  31       11.9204
  32       13.5515
 
  0.3333333E+00  0.0000000E+00  0.0000000E+00  0.1286008E-03
   1       -3.5955
   2       -2.1202
   3       -1.7658
   4       -1.7352
   5       -1.7352
   6       -1.5815
   7       -1.5815
   8       -1.1192
   9       -0.3912
  10       -0.3912
  11       -0.2082
  12       -0.2082
  13       -0.1626
  14        0.3465
  15        0.3879
  16        0.3879
  17        0.5241
  18        0.5241
  19        0.6601
  20        0.7032
  21        1.1199
  22        1.1199
  23        6.3717
  24        6.3717
  25        6.6241
  26        6.6241
  27       10.0551
  28       10.0551
  29       10.9810
  30       10.9810
  31       12.5329
  32       13.8085
 
  0.3611111E+00  0.0000000E+00  0.0000000E+00  0.1286008E-03
   1       -3.4380
   2       -2.1446
   3       -1.7185
   4       -1.6711
   5       -1.6711
   6       -1.4987
   7       -1.4987
   8       -1.1722
   9       -0.3492
  10       -0.3492
  11       -0.3295
  12       -0.3295
  13       -0.2014
  14        0.3235
  15        0.3235
  16        0.3734
  17        0.4131
  18        0.4422
  19        0.4422
  20        0.6749
  21        1.1199
  22        1.1199
  23        6.3371
  24        6.3371
  25        6.8997
  26        6.8997
  27        9.7792
  28        9.7792
  29       10.9129
  30       10.9129
  31       13.1542
  32       14.0809
 
  0.3888889E+00  0.0000000E+00  0.0000000E+00  0.1286008E-03
   1       -3.2740
   2       -2.1897
   3       -1.6688
   4       -1.6120
   5       -1.6120
   6       -1.4097
   7       -1.4097
   8       -1.2268
   9       -0.4869
  10       -0.4869
  11       -0.2638
  12       -0.2638
  13       -0.2349
  14        0.2023
  15        0.2638
  16        0.2638
  17        0.3593
  18        0.3593
  19        0.4014
  20        0.6454
  21        1.1200
  22        1.1200
  23        6.3075
  24        6.3075
  25        7.1807
  26        7.1807
  27        9.4973
  28        9.4973
  29       10.8571
  30       10.8571
  31       13.7825
  32       14.3674
 
  0.4166667E+00  0.0000000E+00  0.0000000E+00  0.1286008E-03
   1       -3.1060
   2       -2.2593
   3       -1.6170
   4       -1.5608
   5       -1.5608
   6       -1.3143
   7       -1.3143
   8       -1.2826
   9       -0.6205
  10       -0.6205
  11       -0.2602
  12       -0.1946
  13       -0.1946
  14        0.0314
  15        0.2121
  16        0.2121
  17        0.2762
  18        0.2762
  19        0.4306
  20        0.6152
  21        1.1200
  22        1.1200
  23        6.2835
  24        6.2835
  25        7.4660
  26        7.4660
  27        9.2109
  28        9.2109
  29       10.8137
  30       10.8137
  31       14.4157
  32       14.6665
 
  0.4444444E+00  0.0000000E+00  0.0000000E+00  0.1286008E-03
   1       -2.9373
   2       -2.3549
   3       -1.5634
   4       -1.5210
   5       -1.5210
   6       -1.3391
   7       -1.2129
   8       -1.2129
   9       -0.7495
  10       -0.7495
  11       -0.2734
  12       -0.1220
  13       -0.1220
  14       -0.0984
  15        0.1718
  16        0.1718
  17        0.1934
  18        0.1934
  19        0.4606
  20        0.5845
  21        1.1201
  22        1.1201
  23        6.2659
  24        6.2659
  25        7.7546
  26        7.7546
  27        8.9214
  28        8.9214
  29       10.7827
  30       10.7827
  31       14.9770
  32       14.9786
 
  0.4722222E+00  0.0000000E+00  0.0000000E+00  0.1286008E-03
   1       -2.7724
   2       -2.4753
   3       -1.5084
   4       -1.4956
   5       -1.4956
   6       -1.3959
   7       -1.1055
   8       -1.1055
   9       -0.8736
  10       -0.8736
  11       -0.2699
  12       -0.1886
  13       -0.0465
  14       -0.0465
  15        0.1117
  16        0.1117
  17        0.1461
  18        0.1461
  19        0.4912
  20        0.5534
  21        1.1201
  22        1.1201
  23        6.2552
  24        6.2552
  25        8.0454
  26        8.0454
  27        8.6298
  28        8.6298
  29       10.7641
  30       10.7641
  31       15.2974
  32       15.2974
 
  0.5000000E+00  0.0000000E+00  0.0000000E+00  0.6430041E-04
   1       -2.6164
   2       -2.6164
   3       -1.4869
   4       -1.4869
   5       -1.4524
   6       -1.4524
   7       -0.9923
   8       -0.9923
   9       -0.9923
  10       -0.9923
  11       -0.2437
  12       -0.2437
  13        0.0316
  14        0.0316
  15        0.0316
  16        0.0316
  17        0.1372
  18        0.1372
  19        0.5222
  20        0.5222
  21        1.1201
  22        1.1201
  23        6.2516
  24        6.2516
  25        8.3375
  26        8.3375
  27        8.3375
  28        8.3375
  29       10.7579
  30       10.7579
  31       15.6261
  32       15.6261
 
  0.2777778E-01  0.2777778E-01  0.0000000E+00  0.2572016E-03
   1       -4.5627
   2       -2.2396
   3       -2.2396
   4       -2.2375
   5       -2.0565
   6       -2.0565
   7       -2.0553
   8       -0.7666
   9       -0.7590
  10       -0.7574
  11        0.1721
  12        0.1763
  13        0.8820
  14        0.8844
  15        0.8844
  16        1.0911
  17        1.0983
  18        1.0983
  19        1.1141
  20        1.1141
  21        1.1157
  22        4.4124
  23        4.4124
  24        4.5339
  25        6.7336
  26        6.8503
  27        6.8503
  28       11.9865
  29       12.0759
  30       12.0759
  31       12.0766
  32       12.0767
 
  0.5555556E-01  0.2777778E-01  0.0000000E+00  0.5144033E-03
   1       -4.5413
   2       -2.2336
   3       -2.2270
   4       -2.2251
   5       -2.0499
   6       -2.0464
   7       -2.0450
   8       -0.7742
   9       -0.7519
  10       -0.7494
  11        0.1642
  12        0.1793
  13        0.8700
  14        0.8718
  15        0.8796
  16        1.0471
  17        1.0524
  18        1.0835
  19        1.0990
  20        1.1140
  21        1.1141
  22        4.1573
  23        4.4742
  24        4.5970
  25        6.7223
  26        6.8408
  27        7.1439
  28       11.8799
  29       12.0218
  30       12.0261
  31       12.1138
  32       12.1155
 
  0.8333333E-01  0.2777778E-01  0.0000000E+00  0.5144033E-03
   1       -4.5057
   2       -2.2237
   3       -2.2060
   4       -2.2046
   5       -2.0390
   6       -2.0297
   7       -2.0280
   8       -0.7878
   9       -0.7387
  10       -0.7363
  11        0.1500
  12        0.1857
  13        0.8501
  14        0.8503
  15        0.8716
  16        0.9750
  17        0.9802
  18        1.0591
  19        1.0743
  20        1.1135
  21        1.1142
  22        3.8208
  23        4.5732
  24        4.6984
  25        6.7037
  26        6.8255
  27        7.5446
  28       11.7485
  29       11.9335
  30       11.9478
  31       12.0838
  32       12.1799
 
  0.1111111E+00  0.2777778E-01  0.0000000E+00  0.5144033E-03
   1       -4.4561
   2       -2.2104
   3       -2.1771
   4       -2.1762
   5       -2.0239
   6       -2.0063
   7       -2.0041
   8       -0.8069
   9       -0.7202
  10       -0.7179
  11        0.1302
  12        0.1946
  13        0.8172
  14        0.8224
  15        0.8602
  16        0.8802
  17        0.8894
  18        1.0257
  19        1.0402
  20        1.1134
  21        1.1142
  22        3.4495
  23        4.7043
  24        4.8336
  25        6.6785
  26        6.8053
  27        8.0062
  28       11.5976
  29       11.8132
  30       11.8487
  31       12.0227
  32       12.2707
 
  0.1388889E+00  0.2777778E-01  0.0000000E+00  0.5144033E-03
   1       -4.3925
   2       -2.1942
   3       -2.1404
   4       -2.1403
   5       -2.0045
   6       -1.9762
   7       -1.9735
   8       -0.8312
   9       -0.6965
  10       -0.6943
  11        0.1054
  12        0.2060
  13        0.7497
  14        0.7677
  15        0.7873
  16        0.8080
  17        0.8451
  18        0.9844
  19        0.9974
  20        1.1134
  21        1.1142
  22        3.0668
  23        4.8618
  24        4.9977
  25        6.6474
  26        6.7814
  27        8.5055
  28       11.4315
  29       11.6640
  30       11.7363
  31       11.9342
  32       12.3861
 
  0.1666667E+00  0.2777778E-01  0.0000000E+00  0.5144033E-03
   1       -4.3153
   2       -2.1760
   3       -2.0974
   4       -2.0966
   5       -1.9810
   6       -1.9394
   7       -1.9360
   8       -0.8604
   9       -0.6676
  10       -0.6657
  11        0.0758
  12        0.2199
  13        0.6327
  14        0.6422
  15        0.7451
  16        0.7560
  17        0.8254
  18        0.9367
  19        0.9467
  20        1.1135
  21        1.1143
  22        2.6850
  23        5.0402
  24        5.1859
  25        6.6114
  26        6.7557
  27        9.0311
  28       11.2533
  29       11.4890
  30       11.6175
  31       11.8248
  32       12.5246
 
  0.1944444E+00  0.2777778E-01  0.0000000E+00  0.5144033E-03
   1       -4.2247
   2       -2.1570
   3       -2.0481
   4       -2.0463
   5       -1.9536
   6       -1.8959
   7       -1.8918
   8       -0.8941
   9       -0.6335
  10       -0.6321
  11        0.0421
  12        0.2360
  13        0.4995
  14        0.5076
  15        0.6963
  16        0.7048
  17        0.7986
  18        0.8859
  19        0.8889
  20        1.1135
  21        1.1143
  22        2.3113
  23        5.2336
  24        5.3943
  25        6.5714
  26        6.7309
  27        9.5765
  28       11.0645
  29       11.2915
  30       11.4978
  31       11.7016
  32       12.6841
 
  0.2222222E+00  0.2777778E-01  0.0000000E+00  0.5144033E-03
   1       -4.1211
   2       -2.1384
   3       -1.9931
   4       -1.9902
   5       -1.9224
   6       -1.8459
   7       -1.8409
   8       -0.9321
   9       -0.5945
  10       -0.5936
  11        0.0050
  12        0.2544
  13        0.3592
  14        0.3670
  15        0.6416
  16        0.6490
  17        0.7584
  18        0.8248
  19        0.8388
  20        1.1136
  21        1.1144
  22        1.9507
  23        5.4359
  24        5.6195
  25        6.5288
  26        6.7111
  27       10.1379
  28       10.8652
  29       11.0746
  30       11.3818
  31       11.5719
  32       12.8665
 
  0.2500000E+00  0.2777778E-01  0.0000000E+00  0.5144033E-03
   1       -4.0051
   2       -2.1221
   3       -1.9334
   4       -1.9294
   5       -1.8875
   6       -1.7892
   7       -1.7835
   8       -0.9739
   9       -0.5507
  10       -0.5504
  11       -0.0348
  12        0.2153
  13        0.2232
  14        0.2748
  15        0.5819
  16        0.5886
  17        0.6997
  18        0.7553
  19        0.8009
  20        1.1137
  21        1.1144
  22        1.6078
  23        5.6388
  24        5.8585
  25        6.4848
  26        6.7029
  27       10.6549
  28       10.7126
  29       10.8412
  30       11.2726
  31       11.4426
  32       13.0679
 
  0.2777778E+00  0.2777778E-01  0.0000000E+00  0.5144033E-03
   1       -3.8772
   2       -2.1107
   3       -1.8701
   4       -1.8651
   5       -1.8492
   6       -1.7260
   7       -1.7197
   8       -1.0191
   9       -0.5029
  10       -0.5021
  11       -0.0759
  12        0.0701
  13        0.0781
  14        0.2972
  15        0.5184
  16        0.5246
  17        0.6254
  18        0.6814
  19        0.7688
  20        1.1138
  21        1.1145
  22        1.2877
  23        5.8298
  24        6.1091
  25        6.4407
  26        6.7179
  27       10.4328
  28       10.5939
  29       11.1726
  30       11.2984
  31       11.3195
  32       13.2896
 
  0.3055556E+00  0.2777778E-01  0.0000000E+00  0.5144033E-03
   1       -3.7382
   2       -2.1071
   3       -1.8077
   4       -1.8044
   5       -1.7988
   6       -1.6563
   7       -1.6499
   8       -1.0673
   9       -0.4515
  10       -0.4489
  11       -0.1170
  12       -0.0747
  13       -0.0667
  14        0.3213
  15        0.4526
  16        0.4584
  17        0.5375
  18        0.6040
  19        0.7374
  20        0.9983
  21        1.1140
  22        1.1145
  23        5.9899
  24        6.3695
  25        6.3979
  26        6.7745
  27       10.1990
  28       10.3350
  29       11.0833
  30       11.2067
  31       11.8930
  32       13.5291
 
  0.3333333E+00  0.2777778E-01  0.0000000E+00  0.5144033E-03
   1       -3.5894
   2       -2.1153
   3       -1.7632
   4       -1.7381
   5       -1.7324
   6       -1.5801
   7       -1.5741
   8       -1.1181
   9       -0.3971
  10       -0.3914
  11       -0.2178
  12       -0.2099
  13       -0.1556
  14        0.3472
  15        0.3865
  16        0.3917
  17        0.4307
  18        0.5239
  19        0.6938
  20        0.7631
  21        1.1141
  22        1.1146
  23        6.1000
  24        6.3574
  25        6.6379
  26        6.8914
  27        9.9540
  28       10.0667
  29       11.0059
  30       11.1069
  31       12.4932
  32       13.7856
 
  0.3611111E+00  0.2777778E-01  0.0000000E+00  0.5144033E-03
   1       -3.4322
   2       -2.1396
   3       -1.7160
   4       -1.6734
   5       -1.6682
   6       -1.4974
   7       -1.4925
   8       -1.1710
   9       -0.3582
  10       -0.3506
  11       -0.3429
  12       -0.3297
  13       -0.1872
  14        0.2941
  15        0.3224
  16        0.3271
  17        0.3744
  18        0.4421
  19        0.5485
  20        0.6879
  21        1.1142
  22        1.1146
  23        6.1595
  24        6.3205
  25        6.9131
  26        7.0690
  27        9.6993
  28        9.7908
  29       10.9409
  30       11.0212
  31       13.0934
  32       14.0563
 
  0.3888889E+00  0.2777778E-01  0.0000000E+00  0.5144033E-03
   1       -3.2684
   2       -2.1847
   3       -1.6663
   4       -1.6132
   5       -1.6089
   6       -1.4085
   7       -1.4051
   8       -1.2255
   9       -0.4950
  10       -0.4878
  11       -0.3009
  12       -0.2640
  13       -0.1975
  14        0.1365
  15        0.2631
  16        0.2671
  17        0.3592
  18        0.4030
  19        0.4171
  20        0.6542
  21        1.1143
  22        1.1146
  23        6.1857
  24        6.2879
  25        7.1937
  26        7.2897
  27        9.4364
  28        9.5089
  29       10.8886
  30       10.9503
  31       13.6812
  32       14.3414
 
  0.4166667E+00  0.2777778E-01  0.0000000E+00  0.5144033E-03
   1       -3.1005
   2       -2.2542
   3       -1.6146
   4       -1.5609
   5       -1.5576
   6       -1.3134
   7       -1.3118
   8       -1.2811
   9       -0.6276
  10       -0.6210
  11       -0.2918
  12       -0.1948
  13       -0.1632
  14       -0.0108
  15        0.2118
  16        0.2150
  17        0.2760
  18        0.3125
  19        0.4327
  20        0.6221
  21        1.1144
  22        1.1146
  23        6.1957
  24        6.2603
  25        7.4787
  26        7.5362
  27        9.1673
  28        9.2226
  29       10.8493
  30       10.8940
  31       14.2271
  32       14.6389
 
  0.4444444E+00  0.2777778E-01  0.0000000E+00  0.5144033E-03
   1       -2.9320
   2       -2.3499
   3       -1.5612
   4       -1.5199
   5       -1.5178
   6       -1.3375
   7       -1.2125
   8       -1.2121
   9       -0.7556
  10       -0.7497
  11       -0.2957
  12       -0.1289
  13       -0.1222
  14       -0.1005
  15        0.1720
  16        0.1742
  17        0.1933
  18        0.2196
  19        0.4632
  20        0.5901
  21        1.1145
  22        1.1146
  23        6.1998
  24        6.2382
  25        7.7670
  26        7.7975
  27        8.8938
  28        8.9331
  29       10.8231
  30       10.8521
  31       14.6904
  32       14.9474
 
  0.4722222E+00  0.2777778E-01  0.0000000E+00  0.5144033E-03
   1       -2.7672
   2       -2.4702
   3       -1.5063
   4       -1.4935
   5       -1.4925
   6       -1.3941
   7       -1.1070
   8       -1.1049
   9       -0.8783
  10       -0.8735
  11       -0.2900
  12       -0.2129
  13       -0.0467
  14       -0.0277
  15        0.1115
  16        0.1328
  17        0.1468
  18        0.1480
  19        0.4944
  20        0.5580
  21        1.1145
  22        1.1146
  23        6.2037
  24        6.2217
  25        8.0576
  26        8.0673
  27        8.6180
  28        8.6417
  29       10.8101
  30       10.8244
  31       15.0787
  32       15.2654
 
  0.5000000E+00  0.2777778E-01  0.0000000E+00  0.2572016E-03
   1       -2.6113
   2       -2.6113
   3       -1.4841
   4       -1.4841
   5       -1.4505
   6       -1.4505
   7       -0.9956
   8       -0.9956
   9       -0.9920
  10       -0.9920
  11       -0.2647
  12       -0.2647
  13        0.0314
  14        0.0314
  15        0.0504
  16        0.0504
  17        0.1385
  18        0.1385
  19        0.5261
  20        0.5261
  21        1.1146
  22        1.1146
  23        6.2105
  24        6.2105
  25        8.3417
  26        8.3417
  27        8.3495
  28        8.3495
  29       10.8105
  30       10.8105
  31       15.4325
  32       15.4378
 
  0.5555556E-01  0.5555556E-01  0.0000000E+00  0.2572016E-03
   1       -4.5200
   2       -2.2208
   3       -2.2208
   4       -2.2134
   5       -2.0399
   6       -2.0399
   7       -2.0343
   8       -0.7782
   9       -0.7481
  10       -0.7417
  11        0.1610
  12        0.1780
  13        0.8582
  14        0.8652
  15        0.8652
  16        1.0112
  17        1.0386
  18        1.0386
  19        1.0990
  20        1.0990
  21        1.1056
  22        4.2165
  23        4.2165
  24        4.6587
  25        6.7104
  26        7.1368
  27        7.1368
  28       11.7254
  29       12.0607
  30       12.0607
  31       12.0655
  32       12.0655
 
  0.8333333E-01  0.5555556E-01  0.0000000E+00  0.5144033E-03
   1       -4.4845
   2       -2.2109
   3       -2.1998
   4       -2.1939
   5       -2.0291
   6       -2.0232
   7       -2.0164
   8       -0.7897
   9       -0.7371
  10       -0.7289
  11        0.1493
  12        0.1823
  13        0.8386
  14        0.8392
  15        0.8540
  16        0.9454
  17        0.9701
  18        1.0162
  19        1.0742
  20        1.0990
  21        1.1008
  22        3.8789
  23        4.3106
  24        4.7581
  25        6.6910
  26        7.1257
  27        7.5383
  28       11.5535
  29       11.9719
  30       11.9876
  31       12.1251
  32       12.1309
 
  0.1111111E+00  0.5555556E-01  0.0000000E+00  0.5144033E-03
   1       -4.4350
   2       -2.1975
   3       -2.1707
   4       -2.1671
   5       -2.0140
   6       -1.9999
   7       -1.9914
   8       -0.8077
   9       -0.7195
  10       -0.7111
  11        0.1306
  12        0.1908
  13        0.7933
  14        0.8115
  15        0.8371
  16        0.8552
  17        0.8912
  18        0.9864
  19        1.0401
  20        1.0985
  21        1.0990
  22        3.5083
  23        4.4341
  24        4.8909
  25        6.6646
  26        7.1117
  27        7.9986
  28       11.3694
  29       11.8512
  30       11.8894
  31       12.2040
  32       12.2145
 
  0.1388889E+00  0.5555556E-01  0.0000000E+00  0.5144033E-03
   1       -4.3717
   2       -2.1812
   3       -2.1340
   4       -2.1332
   5       -1.9948
   6       -1.9699
   7       -1.9593
   8       -0.8313
   9       -0.6962
  10       -0.6882
  11        0.1064
  12        0.2024
  13        0.7107
  14        0.7464
  15        0.7770
  16        0.8132
  17        0.8244
  18        0.9512
  19        0.9973
  20        1.0975
  21        1.0990
  22        3.1281
  23        4.5809
  24        5.0525
  25        6.6318
  26        7.0964
  27        8.4950
  28       11.1776
  29       11.7014
  30       11.7784
  31       12.1629
  32       12.3282
 
  0.1666667E+00  0.5555556E-01  0.0000000E+00  0.5144033E-03
   1       -4.2947
   2       -2.1629
   3       -2.0927
   4       -2.0900
   5       -1.9715
   6       -1.9333
   7       -1.9201
   8       -0.8600
   9       -0.6676
  10       -0.6605
  11        0.0775
  12        0.2167
  13        0.5954
  14        0.6241
  15        0.7354
  16        0.7705
  17        0.7797
  18        0.9135
  19        0.9466
  20        1.0969
  21        1.0990
  22        2.7504
  23        4.7447
  24        5.2382
  25        6.5936
  26        7.0819
  27        9.0160
  28       10.9810
  29       11.5259
  30       11.6616
  31       12.0919
  32       12.4653
 
  0.1944444E+00  0.5555556E-01  0.0000000E+00  0.5144033E-03
   1       -4.2044
   2       -2.1436
   3       -2.0460
   4       -2.0394
   5       -1.9443
   6       -1.8901
   7       -1.8741
   8       -0.8932
   9       -0.6337
  10       -0.6281
  11        0.0446
  12        0.2335
  13        0.4643
  14        0.4923
  15        0.6874
  16        0.7172
  17        0.7339
  18        0.8763
  19        0.8887
  20        1.0967
  21        1.0990
  22        2.3825
  23        4.9195
  24        5.4443
  25        6.5511
  26        7.0713
  27        9.5550
  28       10.7816
  29       11.3278
  30       11.5447
  31       11.9969
  32       12.6247
 
  0.2222222E+00  0.5555556E-01  0.0000000E+00  0.5144033E-03
   1       -4.1012
   2       -2.1247
   3       -1.9938
   4       -1.9831
   5       -1.9132
   6       -1.8403
   7       -1.8214
   8       -0.9308
   9       -0.5948
  10       -0.5912
  11        0.0085
  12        0.2526
  13        0.3255
  14        0.3542
  15        0.6335
  16        0.6604
  17        0.6743
  18        0.8245
  19        0.8411
  20        1.0966
  21        1.0990
  22        2.0301
  23        5.0992
  24        5.6672
  25        6.5053
  26        7.0683
  27       10.1077
  28       10.5801
  29       11.1104
  30       11.4324
  31       11.8849
  32       12.8059
 
  0.2500000E+00  0.5555556E-01  0.0000000E+00  0.5144033E-03
   1       -3.9855
   2       -2.1082
   3       -1.9367
   4       -1.9220
   5       -1.8786
   6       -1.7839
   7       -1.7625
   8       -0.9722
   9       -0.5510
  10       -0.5502
  11       -0.0297