  32  32   0   0
  0.1202155E+02  0.7272832E-09  0.7272832E-09  0.7272832E-09  0.5000000E-15
  1.000000000000000E-004
  CAR 
 unknown system                          
     14.64888284     -6.53646781  301      3.63905153      1.00000000
     -6.536  0.0000E+00  0.0000E+00
     -6.466  0.0000E+00  0.0000E+00
     -6.395  0.0000E+00  0.0000E+00
     -6.325  0.0000E+00  0.0000E+00
     -6.254  0.0000E+00  0.0000E+00
     -6.183  0.0000E+00  0.0000E+00
     -6.113  0.0000E+00  0.0000E+00
     -6.042  0.0000E+00  0.0000E+00
     -5.972  0.0000E+00  0.0000E+00
     -5.901  0.0000E+00  0.0000E+00
     -5.830  0.0000E+00  0.0000E+00
     -5.760  0.0000E+00  0.0000E+00
     -5.689  0.0000E+00  0.0000E+00
     -5.618  0.8589E-11  0.6065E-12
     -5.548  0.8256E-01  0.5830E-02
     -5.477  0.4955E+00  0.4082E-01
     -5.407  0.9973E+00  0.1113E+00
     -5.336  0.7375E+00  0.1633E+00
     -5.265  0.1755E+01  0.2873E+00
     -5.195  0.2565E+01  0.4684E+00
     -5.124  0.1507E-06  0.4723E+00
     -5.053  0.9913E+00  0.5423E+00
     -4.983  0.2511E+01  0.7196E+00
     -4.912  0.2549E+01  0.8996E+00
     -4.842  0.1971E+01  0.1039E+01
     -4.771  0.2046E+01  0.1183E+01
     -4.700  0.3963E+01  0.1464E+01
     -4.630  0.4044E-02  0.1464E+01
     -4.559  0.1849E+01  0.1594E+01
     -4.489  0.5256E+01  0.1966E+01
     -4.418  0.2242E+01  0.2128E+01
     -4.347  0.1985E+01  0.2268E+01
     -4.277  0.4443E+01  0.2582E+01
     -4.206  0.1499E+01  0.2688E+01
     -4.135  0.1979E+01  0.2828E+01
     -4.065  0.2486E+01  0.3004E+01
     -3.994  0.6416E+01  0.3457E+01
     -3.924  0.2162E+01  0.3609E+01
     -3.853  0.5933E+01  0.4028E+01
     -3.782  0.3963E+01  0.4309E+01
     -3.712  0.3394E+00  0.4333E+01
     -3.641  0.4561E+01  0.4655E+01
     -3.571  0.3964E+01  0.4939E+01
     -3.500  0.5645E+01  0.5338E+01
     -3.429  0.2626E+01  0.5523E+01
     -3.359  0.6045E+01  0.5953E+01
     -3.288  0.4099E+00  0.5982E+01
     -3.217  0.9274E+01  0.6637E+01
     -3.147  0.5559E+01  0.7046E+01
     -3.076  0.2029E+01  0.7189E+01
     -3.006  0.6278E+01  0.7632E+01
     -2.935  0.4195E+01  0.7929E+01
     -2.864  0.4376E+00  0.7960E+01
     -2.794  0.9249E+01  0.8613E+01
     -2.723  0.6019E+01  0.9038E+01
     -2.652  0.2511E+01  0.9221E+01
     -2.582  0.1330E+02  0.1016E+02
     -2.511  0.5801E+01  0.1057E+02
     -2.441  0.2971E+01  0.1079E+02
     -2.370  0.4472E+01  0.1111E+02
     -2.299  0.6428E+01  0.1156E+02
     -2.229  0.8760E+01  0.1218E+02
     -2.158  0.5025E+01  0.1254E+02
     -2.088  0.1010E+02  0.1325E+02
     -2.017  0.1106E+02  0.1403E+02
     -1.946  0.9793E+01  0.1472E+02
     -1.876  0.1201E+01  0.1481E+02
     -1.805  0.1070E+02  0.1556E+02
     -1.734  0.9272E+01  0.1622E+02
     -1.664  0.1891E+02  0.1756E+02
     -1.593  0.1051E+02  0.1830E+02
     -1.523  0.1167E+02  0.1913E+02
     -1.452  0.1482E+02  0.2018E+02
     -1.381  0.1260E+02  0.2108E+02
     -1.311  0.2619E+02  0.2294E+02
     -1.240  0.1900E+02  0.2429E+02
     -1.170  0.3570E+02  0.2682E+02
     -1.099  0.2022E+02  0.2826E+02
     -1.028  0.4632E+02  0.3153E+02
     -0.958  0.4051E+02  0.3441E+02
     -0.887  0.3992E+02  0.3723E+02
     -0.816  0.4399E+02  0.4034E+02
     -0.746  0.3479E+02  0.4282E+02
     -0.675  0.4878E+02  0.4627E+02
     -0.605  0.5754E+02  0.5034E+02
     -0.534  0.6998E+02  0.5530E+02
     -0.463  0.6374E+02  0.5982E+02
     -0.393  0.8341E+02  0.6572E+02
     -0.322  0.8015E+02  0.7140E+02
     -0.251  0.7408E+02  0.7665E+02
     -0.181  0.6531E+02  0.8128E+02
     -0.110  0.6923E+02  0.8622E+02
     -0.040  0.7105E+02  0.9126E+02
      0.031  0.6689E+02  0.9602E+02
      0.102  0.6372E+02  0.1005E+03
      0.172  0.8051E+02  0.1063E+03
      0.243  0.8203E+02  0.1121E+03
      0.313  0.8925E+02  0.1184E+03
      0.384  0.1092E+03  0.1261E+03
      0.455  0.1107E+03  0.1340E+03
      0.525  0.9429E+02  0.1407E+03
      0.596  0.1256E+03  0.1496E+03
      0.667  0.1236E+03  0.1584E+03
      0.737  0.1515E+03  0.1691E+03
      0.808  0.1487E+03  0.1796E+03
      0.878  0.1311E+03  0.1890E+03
      0.949  0.9854E+02  0.1960E+03
      1.020  0.1034E+03  0.2033E+03
      1.090  0.8181E+02  0.2091E+03
      1.161  0.8384E+02  0.2151E+03
      1.231  0.9582E+02  0.2219E+03
      1.302  0.1096E+03  0.2297E+03
      1.373  0.1272E+03  0.2387E+03
      1.443  0.1165E+03  0.2469E+03
      1.514  0.1247E+03  0.2558E+03
      1.585  0.1027E+03  0.2631E+03
      1.655  0.1016E+03  0.2702E+03
      1.726  0.1173E+03  0.2786E+03
      1.796  0.9177E+02  0.2851E+03
      1.867  0.1312E+03  0.2944E+03
      1.938  0.1589E+03  0.3056E+03
      2.008  0.2131E+03  0.3208E+03
      2.079  0.1328E+03  0.3302E+03
      2.150  0.6110E+02  0.3345E+03
      2.220  0.1324E+02  0.3354E+03
      2.291  0.2891E+02  0.3375E+03
      2.361  0.4113E+01  0.3378E+03
      2.432  0.1138E+02  0.3386E+03
      2.503  0.1138E+02  0.3394E+03
      2.573  0.1948E+02  0.3408E+03
      2.644  0.1267E+02  0.3417E+03
      2.714  0.5895E+01  0.3421E+03
      2.785  0.1175E+02  0.3429E+03
      2.856  0.1113E+02  0.3437E+03
      2.926  0.1739E+02  0.3449E+03
      2.997  0.7430E+01  0.3455E+03
      3.068  0.8149E+01  0.3460E+03
      3.138  0.9927E+01  0.3467E+03
      3.209  0.3027E+01  0.3470E+03
      3.279  0.1904E+02  0.3483E+03
      3.350  0.2131E+02  0.3498E+03
      3.421  0.2578E+01  0.3500E+03
      3.491  0.9475E+01  0.3507E+03
      3.562  0.8521E+01  0.3513E+03
      3.633  0.7592E+01  0.3518E+03
      3.703  0.5437E+01  0.3522E+03
      3.774  0.1289E+02  0.3531E+03
      3.844  0.1996E+01  0.3533E+03
      3.915  0.2031E+02  0.3547E+03
      3.986  0.3479E+01  0.3549E+03
      4.056  0.1320E+02  0.3559E+03
      4.127  0.2068E+02  0.3573E+03
      4.197  0.2360E+01  0.3575E+03
      4.268  0.3676E+01  0.3578E+03
      4.339  0.6920E+01  0.3583E+03
      4.409  0.8441E+01  0.3589E+03
      4.480  0.2088E+01  0.3590E+03
      4.551  0.1396E+02  0.3600E+03
      4.621  0.9475E+01  0.3607E+03
      4.692  0.1601E+02  0.3618E+03
      4.762  0.4811E+01  0.3622E+03
      4.833  0.5719E+01  0.3626E+03
      4.904  0.1181E+02  0.3634E+03
      4.974  0.6657E+01  0.3639E+03
      5.045  0.9656E+01  0.3645E+03
      5.115  0.7122E+01  0.3651E+03
      5.186  0.5346E+01  0.3654E+03
      5.257  0.9263E+01  0.3661E+03
      5.327  0.1043E+01  0.3662E+03
      5.398  0.1856E+02  0.3675E+03
      5.469  0.4201E+01  0.3678E+03
      5.539  0.1073E+02  0.3685E+03
      5.610  0.1138E+02  0.3693E+03
      5.680  0.3205E+01  0.3696E+03
      5.751  0.4965E+01  0.3699E+03
      5.822  0.7220E+01  0.3704E+03
      5.892  0.8689E+01  0.3710E+03
      5.963  0.1057E+02  0.3718E+03
      6.034  0.5891E+01  0.3722E+03
      6.104  0.6035E+01  0.3726E+03
      6.175  0.1945E+01  0.3728E+03
      6.245  0.3999E+01  0.3731E+03
      6.316  0.1398E+02  0.3740E+03
      6.387  0.1273E+02  0.3749E+03
      6.457  0.5503E-04  0.3749E+03
      6.528  0.3060E+01  0.3752E+03
      6.598  0.4186E+01  0.3755E+03
      6.669  0.1257E+02  0.3763E+03
      6.740  0.4573E+01  0.3767E+03
      6.810  0.9306E+01  0.3773E+03
      6.881  0.1974E+01  0.3775E+03
      6.952  0.7052E-01  0.3775E+03
      7.022  0.5777E+01  0.3779E+03
      7.093  0.8037E+01  0.3784E+03
      7.163  0.3014E+01  0.3787E+03
      7.234  0.9755E+01  0.3793E+03
      7.305  0.1991E+00  0.3794E+03
      7.375  0.8518E+01  0.3800E+03
      7.446  0.1274E+02  0.3809E+03
      7.516  0.6118E+01  0.3813E+03
      7.587  0.9266E+01  0.3820E+03
      7.658  0.6907E+01  0.3825E+03
      7.728  0.7731E+01  0.3830E+03
      7.799  0.8146E+01  0.3836E+03
      7.870  0.1152E+02  0.3844E+03
      7.940  0.1008E+02  0.3851E+03
      8.011  0.8697E+01  0.3857E+03
      8.081  0.7292E+01  0.3862E+03
      8.152  0.7509E+01  0.3868E+03
      8.223  0.1191E+02  0.3876E+03
      8.293  0.1139E+02  0.3884E+03
      8.364  0.1410E+02  0.3894E+03
      8.435  0.5726E+01  0.3898E+03
      8.505  0.2736E+01  0.3900E+03
      8.576  0.1078E+02  0.3908E+03
      8.646  0.1165E+02  0.3916E+03
      8.717  0.5425E+01  0.3920E+03
      8.788  0.1381E+02  0.3930E+03
      8.858  0.8904E+01  0.3936E+03
      8.929  0.1019E+02  0.3943E+03
      8.999  0.5517E+01  0.3947E+03
      9.070  0.1297E+02  0.3957E+03
      9.141  0.1079E+02  0.3964E+03
      9.211  0.1982E+01  0.3966E+03
      9.282  0.3979E+01  0.3968E+03
      9.353  0.7334E+01  0.3974E+03
      9.423  0.1276E+02  0.3983E+03
      9.494  0.1015E+02  0.3990E+03
      9.564  0.8172E+01  0.3996E+03
      9.635  0.9093E+01  0.4002E+03
      9.706  0.6337E+01  0.4006E+03
      9.776  0.9843E+01  0.4013E+03
      9.847  0.6120E+01  0.4018E+03
      9.917  0.6329E+01  0.4022E+03
      9.988  0.6009E+01  0.4027E+03
     10.059  0.1061E+02  0.4034E+03
     10.129  0.1133E+02  0.4042E+03
     10.200  0.7327E+00  0.4043E+03
     10.271  0.1149E+02  0.4051E+03
     10.341  0.8216E+01  0.4057E+03
     10.412  0.5851E+01  0.4061E+03
     10.482  0.3056E+01  0.4063E+03
     10.553  0.6340E+01  0.4067E+03
     10.624  0.9267E+01  0.4074E+03
     10.694  0.8302E+01  0.4080E+03
     10.765  0.1219E+02  0.4088E+03
     10.836  0.1179E+02  0.4097E+03
     10.906  0.7513E+01  0.4102E+03
     10.977  0.7726E+01  0.4108E+03
     11.047  0.8935E+01  0.4114E+03
     11.118  0.1070E+02  0.4122E+03
     11.189  0.6973E+01  0.4127E+03
     11.259  0.1246E+02  0.4135E+03
     11.330  0.1622E+02  0.4147E+03
     11.400  0.4051E+01  0.4150E+03
     11.471  0.1195E+02  0.4158E+03
     11.542  0.1570E+02  0.4170E+03
     11.612  0.6372E+01  0.4174E+03
     11.683  0.1559E+02  0.4185E+03
     11.754  0.2857E+01  0.4187E+03
     11.824  0.1555E+02  0.4198E+03
     11.895  0.7083E+01  0.4203E+03
     11.965  0.7133E+01  0.4208E+03
     12.036  0.1281E+02  0.4217E+03
     12.107  0.1936E+02  0.4231E+03
     12.177  0.3984E+01  0.4234E+03
     12.248  0.8821E+01  0.4240E+03
     12.318  0.9990E+01  0.4247E+03
     12.389  0.1811E+02  0.4260E+03
     12.460  0.9953E+01  0.4267E+03
     12.530  0.4656E+01  0.4270E+03
     12.601  0.9656E+01  0.4277E+03
     12.672  0.1663E+02  0.4289E+03
     12.742  0.6161E+01  0.4293E+03
     12.813  0.1065E+02  0.4301E+03
     12.883  0.6180E+01  0.4305E+03
     12.954  0.5108E+01  0.4309E+03
     13.025  0.2583E+01  0.4311E+03
     13.095  0.7544E+01  0.4316E+03
     13.166  0.2561E+00  0.4316E+03
     13.237  0.9097E-01  0.4316E+03
     13.307  0.3212E+01  0.4319E+03
     13.378  0.0000E+00  0.4319E+03
     13.448  0.0000E+00  0.4319E+03
     13.519  0.0000E+00  0.4319E+03
     13.590  0.0000E+00  0.4319E+03
     13.660  0.3486E-01  0.4319E+03
     13.731  0.1947E+01  0.4320E+03
     13.801  0.0000E+00  0.4320E+03
     13.872  0.0000E+00  0.4320E+03
     13.943  0.0000E+00  0.4320E+03
     14.013  0.0000E+00  0.4320E+03
     14.084  0.0000E+00  0.4320E+03
     14.155  0.0000E+00  0.4320E+03
     14.225  0.0000E+00  0.4320E+03
     14.296  0.0000E+00  0.4320E+03
     14.366  0.0000E+00  0.4320E+03
     14.437  0.0000E+00  0.4320E+03
     14.508  0.0000E+00  0.4320E+03
     14.578  0.0000E+00  0.4320E+03
     14.649  0.0000E+00  0.4320E+03
