   32   32    1    1
  0.1202155E+02  0.7272832E-09  0.7272832E-09  0.7272832E-09  0.5000000E-15
  1.000000000000000E-004
  CAR 
 unknown system                          
  352   40  216
 
  0.0000000E+00  0.0000000E+00  0.0000000E+00  0.2915452E-02
   1       -5.5735
   2       -2.8536
   3       -2.8418
   4       -2.8418
   5       -2.8418
   6       -2.8418
   7       -2.8303
   8       -1.3533
   9       -1.3533
  10       -1.3532
  11       -1.3532
  12       -1.1518
  13       -1.1514
  14       -1.1513
  15       -0.9890
  16       -0.9812
  17       -0.9812
  18       -0.9770
  19       -0.9763
  20       -0.9762
  21       -0.9761
  22       -0.9761
  23       -0.9752
  24       -0.9711
  25       -0.9711
  26       -0.9629
  27       -0.7107
  28       -0.7105
  29       -0.7105
  30       -0.4359
  31       -0.4286
  32       -0.4286
  33       -0.4286
  34       -0.4285
  35       -0.4218
  36       -0.0583
  37       -0.0518
  38       -0.0518
  39       -0.0514
  40       -0.0514
  41       -0.0457
  42        0.1416
  43        0.1465
  44        0.1465
  45        0.1553
  46        0.1553
  47        0.1555
  48        0.1555
  49        0.1558
  50        0.1561
  51        0.1561
  52        0.1568
  53        0.1577
  54        0.1577
  55        0.1583
  56        0.1583
  57        0.1588
  58        0.1589
  59        0.1593
  60        0.1593
  61        0.1594
  62        0.1596
  63        0.1670
  64        0.1670
  65        0.1750
  66        0.3522
  67        0.3611
  68        0.3611
  69        0.3619
  70        0.3630
  71        0.3630
  72        0.3630
  73        0.3633
  74        0.3636
  75        0.3649
  76        0.3649
  77        0.3737
  78        0.6139
  79        0.6141
  80        0.6141
  81        0.6145
  82        0.6146
  83        0.6146
  84        0.6147
  85        0.6149
  86        0.6425
  87        0.6425
  88        0.6429
  89        1.0028
  90        1.0082
  91        1.0090
  92        1.0090
  93        1.0091
  94        1.0147
  95        1.1274
  96        1.1298
  97        1.1321
  98        1.1321
  99        1.1341
 100        1.1341
 101        1.1341
 102        1.1341
 103        1.1359
 104        1.1359
 105        1.1394
 106        1.1400
 107        1.2792
 108        1.2792
 109        1.2856
 110        1.2856
 111        1.2864
 112        1.2865
 113        1.2867
 114        1.2867
 115        1.2872
 116        1.2872
 117        1.2931
 118        1.2931
 119        1.4065
 120        1.4100
 121        1.4100
 122        1.4107
 123        1.4108
 124        1.4141
 125        1.4360
 126        1.4360
 127        1.4406
 128        1.4411
 129        1.4421
 130        1.4423
 131        1.4423
 132        1.4423
 133        1.4426
 134        1.4440
 135        1.4483
 136        1.4502
 137        1.4502
 138        1.4507
 139        1.7097
 140        1.7129
 141        1.7129
 142        1.7129
 143        1.7129
 144        1.7160
 145        1.9830
 146        1.9831
 147        1.9832
 148        1.9968
 149        1.9969
 150        1.9969
 151        1.9969
 152        1.9970
 153        1.9970
 154        1.9970
 155        1.9972
 156        2.1307
 157        2.1329
 158        2.1331
 159        2.1331
 160        2.1332
 161        2.1332
 162        2.1337
 163        2.1338
 164        2.1338
 165        2.1339
 166        2.1340
 167        2.1362
 168        2.6960
 169        2.6963
 170        2.6963
 171        2.6964
 172        3.3009
 173        3.3018
 174        3.3018
 175        3.3053
 176        3.3063
 177        3.3063
 178        3.3063
 179        3.3064
 180        3.3075
 181        3.3109
 182        3.3109
 183        3.3118
 184        5.1652
 185        5.1652
 186        5.1659
 187        7.3027
 188        7.3027
 189        7.3028
 190        7.3030
 191        9.7736
 192        9.7736
 193        9.7867
 194        9.7867
 195        9.7882
 196        9.7882
 197        9.7883
 198        9.7889
 199        9.7896
 200        9.7896
 201        9.8025
 202        9.8025
 203       10.6357
 204       10.6362
 205       10.6362
 206       11.8632
 207       11.8739
 208       11.8739
 209       11.8741
 210       11.8741
 211       11.8836
 212       12.3188
 213       12.3194
 214       12.3201
 215       12.3202
 216       12.3209
 
  0.1428571E+00  0.0000000E+00  0.0000000E+00  0.5830904E-02
   1       -5.5122
   2       -3.4939
   3       -2.7921
   4       -2.7920
   5       -2.7919
   6       -2.7919
   7       -2.2038
   8       -1.3449
   9       -1.3417
  10       -1.3417
  11       -1.3415
  12       -1.3395
  13       -1.3393
  14       -1.3393
  15       -1.3362
  16       -1.1519
  17       -1.1230
  18       -1.1229
  19       -1.0042
  20       -1.0041
  21       -1.0041
  22       -1.0041
  23       -0.6946
  24       -0.6935
  25       -0.6935
  26       -0.6659
  27       -0.6659
  28       -0.6659
  29       -0.6657
  30       -0.4770
  31       -0.4762
  32       -0.4066
  33       -0.4066
  34       -0.4066
  35       -0.4064
  36       -0.2013
  37       -0.0793
  38       -0.0793
  39       -0.0451
  40       -0.0444
  41       -0.0443
  42       -0.0443
  43        0.0993
  44        0.1256
  45        0.1278
  46        0.1278
  47        0.1285
  48        0.1320
  49        0.1323
  50        0.1324
  51        0.1324
  52        0.1571
  53        0.1583
  54        0.1583
  55        0.1583
  56        0.1773
  57        0.1775
  58        0.1775
  59        0.1807
  60        0.2246
  61        0.2249
  62        0.2249
  63        0.2265
  64        0.2360
  65        0.2361
  66        0.2364
  67        0.2364
  68        0.3772
  69        0.3772
  70        0.3774
  71        0.3775
  72        0.4284
  73        0.4284
  74        0.4541
  75        0.4545
  76        0.4545
  77        0.4548
  78        0.6032
  79        0.6032
  80        0.6033
  81        0.6035
  82        0.6251
  83        0.6295
  84        0.6298
  85        0.6298
  86        0.6301
  87        0.6569
  88        0.6569
  89        0.9342
  90        0.9348
  91        0.9348
  92        0.9348
  93        1.0368
  94        1.0734
  95        1.0740
  96        1.0740
  97        1.0742
  98        1.1009
  99        1.1289
 100        1.1289
 101        1.1452
 102        1.1455
 103        1.1455
 104        1.1464
 105        1.1859
 106        1.1859
 107        1.1863
 108        1.1868
 109        1.2862
 110        1.2862
 111        1.2863
 112        1.2865
 113        1.3458
 114        1.3458
 115        1.3461
 116        1.3464
 117        1.3718
 118        1.3718
 119        1.3719
 120        1.3719
 121        1.4104
 122        1.4107
 123        1.4107
 124        1.4108
 125        1.4321
 126        1.4501
 127        1.4511
 128        1.4539
 129        1.4539
 130        1.4557
 131        1.5040
 132        1.5042
 133        1.5042
 134        1.5047
 135        1.5395
 136        1.5395
 137        1.5400
 138        1.5400
 139        1.6535
 140        1.7331
 141        1.7331
 142        1.7331
 143        1.7331
 144        1.7726
 145        1.8020
 146        1.8022
 147        1.8022
 148        1.8022
 149        1.9621
 150        1.9622
 151        1.9763
 152        1.9796
 153        1.9797
 154        1.9797
 155        1.9799
 156        2.0269
 157        2.0269
 158        2.1072
 159        2.1072
 160        2.1072
 161        2.1072
 162        2.1084
 163        2.1084
 164        2.1308
 165        2.1330
 166        2.1337
 167        2.1362
 168        2.8219
 169        2.8219
 170        2.8219
 171        2.8223
 172        2.8705
 173        2.8706
 174        2.8708
 175        2.8708
 176        3.2993
 177        3.2994
 178        3.2994
 179        3.2994
 180        3.8762
 181        3.8762
 182        3.8762
 183        3.8763
 184        4.7713
 185        5.3265
 186        5.3265
 187        7.4788
 188        7.4788
 189        7.4789
 190        7.4790
 191        8.8235
 192        8.8235
 193        9.0305
 194        9.0305
 195        9.0308
 196        9.0311
 197        9.8707
 198        9.8707
 199        9.8708
 200        9.8708
 201       10.6593
 202       10.6594
 203       10.8125
 204       10.8125
 205       11.1525
 206       11.6085
 207       11.6085
 208       12.1198
 209       12.1198
 210       12.1200
 211       12.1200
 212       12.2629
 213       12.2632
 214       12.2632
 215       12.2635
 216       12.4186
 
  0.2857143E+00  0.0000000E+00  0.0000000E+00  0.5830904E-02
   1       -5.3292
   2       -4.0956
   3       -2.6449
   4       -2.6447
   5       -2.6447
   6       -2.6447
   7       -1.7283
   8       -1.7277
   9       -1.7277
  10       -1.7277
  11       -1.6811
  12       -1.2995
  13       -1.2995
  14       -1.2994
  15       -1.2993
  16       -1.1618
  17       -1.0733
  18       -1.0732
  19       -1.0732
  20       -1.0732
  21       -1.0406
  22       -1.0405
  23       -0.6469
  24       -0.6423
  25       -0.6423
  26       -0.5997
  27       -0.5995
  28       -0.4246
  29       -0.4246
  30       -0.4245
  31       -0.4244
  32       -0.3444
  33       -0.3440
  34       -0.3440
  35       -0.3440
  36       -0.3417
  37       -0.2754
  38       -0.2754
  39       -0.0250
  40       -0.0245
  41       -0.0245
  42       -0.0241
  43        0.0657
  44        0.0662
  45        0.0662
  46        0.0662
  47        0.0882
  48        0.0890
  49        0.0890
  50        0.0894
  51        0.0904
  52        0.0906
  53        0.0906
  54        0.0909
  55        0.1623
  56        0.1646
  57        0.1646
  58        0.1647
  59        0.1837
  60        0.1840
  61        0.1840
  62        0.1865
  63        0.2461
  64        0.3978
  65        0.3978
  66        0.3979
  67        0.3980
  68        0.4278
  69        0.4280
  70        0.4280
  71        0.4282
  72        0.5230
  73        0.5233
  74        0.5233
  75        0.5234
  76        0.5707
  77        0.5707
  78        0.5707
  79        0.5712
  80        0.5728
  81        0.6755
  82        0.6757
  83        0.6757
  84        0.6761
  85        0.6996
  86        0.6996
  87        0.7356
  88        0.7356
  89        0.8082
  90        0.8085
  91        0.8087
  92        0.8087
  93        0.9608
  94        0.9611
  95        0.9611
  96        0.9612
  97        0.9877
  98        0.9877
  99        1.1193
 100        1.2126
 101        1.2131
 102        1.2132
 103        1.2132
 104        1.2673
 105        1.2673
 106        1.2675
 107        1.2676
 108        1.2867
 109        1.2867
 110        1.2867
 111        1.2869
 112        1.3266
 113        1.3266
 114        1.3267
 115        1.3268
 116        1.3846
 117        1.3982
 118        1.3983
 119        1.3994
 120        1.3994
 121        1.4053
 122        1.4066
 123        1.4066
 124        1.4076
 125        1.4201
 126        1.4296
 127        1.4296
 128        1.4296
 129        1.4298
 130        1.4739
 131        1.5536
 132        1.5538
 133        1.5969
 134        1.6217
 135        1.6217
 136        1.6218
 137        1.6224
 138        1.6224
 139        1.6227
 140        1.6590
 141        1.6590
 142        1.6591
 143        1.6591
 144        1.7608
 145        1.7608
 146        1.8250
 147        1.8251
 148        1.8252
 149        1.8252
 150        1.8295
 151        1.9007
 152        1.9009
 153        1.9287
 154        1.9288
 155        1.9288
 156        1.9290
 157        1.9562
 158        2.0319
 159        2.0319
 160        2.0320
 161        2.0320
 162        2.0366
 163        2.0366
 164        2.1308
 165        2.1331
 166        2.1337
 167        2.1362
 168        2.5269
 169        2.5270
 170        2.5270
 171        2.5270
 172        3.0089
 173        3.0092
 174        3.0093
 175        3.0093
 176        3.2759
 177        3.2760
 178        3.2760
 179        3.2760
 180        3.8863
 181        4.6131
 182        4.6131
 183        4.6132
 184        4.6132
 185        5.7573
 186        5.7573
 187        7.7965
 188        7.7965
 189        7.7970
 190        7.7970
 191        7.9242
 192        7.9242
 193        7.9864
 194        7.9866
 195        7.9871
 196        7.9871
 197       10.1137
 198       10.1137
 199       10.1137
 200       10.1137
 201       10.7303
 202       10.7303
 203       10.9658
 204       10.9659
 205       10.9659
 206       10.9660
 207       11.2881
 208       11.2881
 209       11.6714
 210       11.6714
 211       11.6717
 212       11.6718
 213       11.8903
 214       11.8903
 215       12.2895
 216       12.2896
 
  0.4285714E+00  0.0000000E+00  0.0000000E+00  0.5830904E-02
   1       -5.0275
   2       -4.6128
   3       -2.4080
   4       -2.4074
   5       -2.4074
   6       -2.4074
   7       -2.0941
   8       -2.0941
   9       -2.0941
  10       -2.0938
  11       -1.3578
  12       -1.2368
  13       -1.2368
  14       -1.2366
  15       -1.2364
  16       -1.2103
  17       -1.1572
  18       -1.1570
  19       -1.1568
  20       -1.1568
  21       -0.9135
  22       -0.9132
  23       -0.7574
  24       -0.7574
  25       -0.5699
  26       -0.5562
  27       -0.5562
  28       -0.4663
  29       -0.4341
  30       -0.4341
  31       -0.2611
  32       -0.2611
  33       -0.2611
  34       -0.2600
  35       -0.2577
  36       -0.2577
  37       -0.2568
  38       -0.2568
  39       -0.0361
  40       -0.0355
  41       -0.0355
  42       -0.0355
  43       -0.0246
  44       -0.0246
  45       -0.0245
  46       -0.0234
  47        0.0060
  48        0.0071
  49        0.0071
  50        0.0075
  51        0.0469
  52        0.0470
  53        0.0470
  54        0.0470
  55        0.1687
  56        0.1729
  57        0.1729
  58        0.1733
  59        0.1812
  60        0.1816
  61        0.1816
  62        0.1862
  63        0.3774
  64        0.4656
  65        0.4656
  66        0.4657
  67        0.4658
  68        0.4884
  69        0.5222
  70        0.5222
  71        0.5224
  72        0.5224
  73        0.5965
  74        0.5968
  75        0.5968
  76        0.5973
  77        0.6900
  78        0.6900
  79        0.6905
  80        0.6909
  81        0.6922
  82        0.6930
  83        0.6932
  84        0.6932
  85        0.7498
  86        0.7499
  87        0.7499
  88        0.7502
  89        0.7701
  90        0.7701
  91        0.8477
  92        0.8477
  93        0.8478
  94        0.8478
  95        0.8671
  96        0.8671
  97        1.0402
  98        1.0403
  99        1.0404
 100        1.0404
 101        1.0719
 102        1.0719
 103        1.2178
 104        1.2902
 105        1.2902
 106        1.2904
 107        1.2908
 108        1.2999
 109        1.3003
 110        1.3003
 111        1.3009
 112        1.3019
 113        1.3021
 114        1.3028
 115        1.3028
 116        1.3114
 117        1.3400
 118        1.3401
 119        1.3401
 120        1.3402
 121        1.3741
 122        1.3742
 123        1.3746
 124        1.3746
 125        1.3861
 126        1.3861
 127        1.3867
 128        1.3871
 129        1.4233
 130        1.4233
 131        1.5051
 132        1.5471
 133        1.6814
 134        1.6816
 135        1.7423
 136        1.7423
 137        1.7423
 138        1.7424
 139        1.7828
 140        1.7828
 141        1.7908
 142        1.7908
 143        1.7909
 144        1.7909
 145        1.8035
 146        1.8039
 147        1.8477
 148        1.8478
 149        1.8479
 150        1.8479
 151        1.8809
 152        1.9209
 153        1.9209
 154        1.9210
 155        1.9210
 156        1.9237
 157        1.9248
 158        1.9248
 159        2.0055
 160        2.0059
 161        2.0059
 162        2.0059
 163        2.0320
 164        2.1308
 165        2.1333
 166        2.1335
 167        2.1361
 168        2.2434
 169        2.2434
 170        2.2434
 171        2.2435
 172        2.8998
 173        3.1451
 174        3.1451
 175        3.1453
 176        3.1453
 177        3.2290
 178        3.2290
 179        3.2291
 180        3.2294
 181        5.5256
 182        5.5256
 183        5.5258
 184        5.5259
 185        6.3684
 186        6.3684
 187        6.5988
 188        6.5988
 189        6.5988
 190        6.5989
 191        7.1012
 192        7.1012
 193        8.7737
 194        8.7737
 195        8.7738
 196        8.7739
 197        9.7837
 198        9.7837
 199        9.7838
 200        9.7838
 201       10.5051
 202       10.5051
 203       10.5052
 204       10.5052
 205       10.8537
 206       10.8537
 207       11.0296
 208       11.0296
 209       11.0297
 210       11.0297
 211       11.0369
 212       11.0369
 213       12.5257
 214       12.5257
 215       12.5257
 216       12.5257
 
  0.0000000E+00  0.1428571E+00  0.0000000E+00  0.1166181E-01
   1       -5.5122
   2       -3.4939
   3       -2.8008
   4       -2.7919
   5       -2.7919
   6       -2.7833
   7       -2.2038
   8       -1.3503
   9       -1.3445
  10       -1.3423
  11       -1.3405
  12       -1.3395
  13       -1.3383
  14       -1.3366
  15       -1.3322
  16       -1.1519
  17       -1.1232
  18       -1.1229
  19       -1.0084
  20       -1.0048
  21       -1.0034
  22       -0.9995
  23       -0.6948
  24       -0.6937
  25       -0.6936
  26       -0.6715
  27       -0.6659
  28       -0.6657
  29       -0.6600
  30       -0.4768
  31       -0.4762
  32       -0.4115
  33       -0.4066
  34       -0.4066
  35       -0.4017
  36       -0.2013
  37       -0.0797
  38       -0.0789
  39       -0.0495
  40       -0.0448
  41       -0.0444
  42       -0.0395
  43        0.0989
  44        0.1226
  45        0.1258
  46        0.1285
  47        0.1301
  48        0.1305
  49        0.1325
  50        0.1351
  51        0.1369
  52        0.1521
  53        0.1580
  54        0.1583
  55        0.1641
  56        0.1728
  57        0.1773
  58        0.1774
  59        0.1828
  60        0.2213
  61        0.2226
  62        0.2260
  63        0.2294
  64        0.2327
  65        0.2365
  66        0.2371
  67        0.2409
  68        0.3736
  69        0.3760
  70        0.3785
  71        0.3801
  72        0.4278
  73        0.4284
  74        0.4509
  75        0.4547
  76        0.4547
  77        0.4586
  78        0.6021
  79        0.6027
  80        0.6033
  81        0.6036
  82        0.6247
  83        0.6297
  84        0.6300
  85        0.6302
  86        0.6307
  87        0.6569
  88        0.6572
  89        0.9295
  90        0.9347
  91        0.9349
  92        0.9398
  93        1.0369
  94        1.0729
  95        1.0741
  96        1.0742
  97        1.0751
  98        1.1018
  99        1.1288
 100        1.1291
 101        1.1425
 102        1.1455
 103        1.1458
 104        1.1482
 105        1.1832
 106        1.1858
 107        1.1859
 108        1.1887
 109        1.2813
 110        1.2863
 111        1.2864
 112        1.2906
 113        1.3415
 114        1.3460
 115        1.3463
 116        1.3502
 117        1.3674
 118        1.3719
 119        1.3721
 120        1.3761
 121        1.4080
 122        1.4108
 123        1.4113
 124        1.4133
 125        1.4321
 126        1.4488
 127        1.4513
 128        1.4537
 129        1.4545
 130        1.4561
 131        1.5002
 132        1.5040
 133        1.5041
 134        1.5086
 135        1.5362
 136        1.5395
 137        1.5401
 138        1.5431
 139        1.6535
 140        1.7307
 141        1.7331
 142        1.7331
 143        1.7356
 144        1.7725
 145        1.7994
 146        1.8013
 147        1.8032
 148        1.8050
 149        1.9621
 150        1.9623
 151        1.9762
 152        1.9788
 153        1.9796
 154        1.9796
 155        1.9803
 156        2.0267
 157        2.0270
 158        2.1058
 159        2.1069
 160        2.1072
 161        2.1073
 162        2.1084
 163        2.1096
 164        2.1332
 165        2.1332
 166        2.1338
 167        2.1339
 168        2.8190
 169        2.8218
 170        2.8219
 171        2.8253
 172        2.8678
 173        2.8705
 174        2.8706
 175        2.8737
 176        3.2954
 177        3.2990
 178        3.2998
 179        3.3033
 180        3.8719
 181        3.8762
 182        3.8762
 183        3.8805
 184        4.7707
 185        5.3265
 186        5.3272
 187        7.4772
 188        7.4784
 189        7.4793
 190        7.4807
 191        8.8234
 192        8.8235
 193        9.0225
 194        9.0307
 195        9.0307
 196        9.0391
 197        9.8592
 198        9.8707
 199        9.8711
 200        9.8819
 201       10.6583
 202       10.6593
 203       10.8124
 204       10.8127
 205       11.1533
 206       11.6081
 207       11.6085
 208       12.1103
 209       12.1199
 210       12.1202
 211       12.1281
 212       12.2574
 213       12.2630
 214       12.2638
 215       12.2694
 216       12.4172
 
  0.1428571E+00  0.1428571E+00  0.0000000E+00  0.2332362E-01
   1       -5.4511
   2       -3.4446
   3       -3.4365
   4       -2.7432
   5       -2.7431
   6       -2.1617
   7       -2.1546
   8       -1.8034
   9       -1.3756
  10       -1.3754
  11       -1.3489
  12       -1.3486
  13       -1.3431
  14       -1.3428
  15       -1.2792
  16       -1.2790
  17       -1.1231
  18       -1.1228
  19       -1.0951
  20       -0.9253
  21       -0.9213
  22       -0.7189
  23       -0.7174
  24       -0.7131
  25       -0.7113
  26       -0.6779
  27       -0.6773
  28       -0.6768
  29       -0.4763
  30       -0.4623
  31       -0.4574
  32       -0.4549
  33       -0.4496
  34       -0.3843
  35       -0.3842
  36       -0.1937
  37       -0.1901
  38       -0.0930
  39       -0.0888
  40       -0.0737
  41       -0.0714
  42       -0.0369
  43       -0.0368
  44        0.0770
  45        0.0776
  46        0.0933
  47        0.0960
  48        0.1033
  49        0.1069
  50        0.1305
  51        0.1492
  52        0.1779
  53        0.1786
  54        0.1822
  55        0.1827
  56        0.1932
  57        0.1936
  58        0.2252
  59        0.2282
  60        0.2291
  61        0.2312
  62        0.2527
  63        0.2729
  64        0.2749
  65        0.2762
  66        0.2790
  67        0.3173
  68        0.3217
  69        0.3930
  70        0.3984
  71        0.4244
  72        0.4259
  73        0.4625
  74        0.4637
  75        0.4663
  76        0.4675
  77        0.5632
  78        0.5686
  79        0.5690
  80        0.6078
  81        0.6078
  82        0.6149
  83        0.6413
  84        0.6413
  85        0.6564
  86        0.6566
  87        0.6639
  88        0.6702
  89        0.8885
  90        0.8888
  91        0.9523
  92        0.9529
  93        0.9954
  94        1.0003
  95        1.0716
  96        1.0727
  97        1.0728
  98        1.0739
  99        1.1140
 100        1.1262
 101        1.1273
 102        1.1292
 103        1.1306
 104        1.1329
 105        1.1333
 106        1.2043
 107        1.2072
 108        1.2096
 109        1.2287
 110        1.2293
 111        1.2365
 112        1.2371
 113        1.2730
 114        1.4069
 115        1.4069
 116        1.4272
 117        1.4380
 118        1.4385
 119        1.4438
 120        1.4462
 121        1.4474
 122        1.4481
 123        1.4499
 124        1.4505
 125        1.4522
 126        1.4524
 127        1.4546
 128        1.4555
 129        1.4583
 130        1.4937
 131        1.4985
 132        1.5271
 133        1.5315
 134        1.5901
 135        1.5902
 136        1.5929
 137        1.5935
 138        1.5945
 139        1.5957
 140        1.6065
 141        1.6638
 142        1.6666
 143        1.7154
 144        1.7154
 145        1.7425
 146        1.7425
 147        1.8078
 148        1.8080
 149        1.9408
 150        1.9419
 151        1.9429
 152        1.9455
 153        1.9883
 154        1.9884
 155        1.9908
 156        1.9908
 157        2.0111
 158        2.0120
 159        2.0843
 160        2.0843
 161        2.1054
 162        2.1063
 163        2.1070
 164        2.1078
 165        2.1085
 166        2.1098
 167        2.1175
 168        2.5191
 169        2.5673
 170        2.5673
 171        2.8579
 172        2.8582
 173        2.8607
 174        2.8609
 175        3.2316
 176        3.2318
 177        3.3460
 178        3.3502
 179        3.8746
 180        3.8761
 181        3.8785
 182        3.8800
 183        4.5339
 184        4.9293
 185        4.9308
 186        5.4788
 187        7.3361
 188        7.3361
 189        7.9291
 190        7.9292
 191        8.1661
 192        8.1718
 193        8.9067
 194        8.9148
 195        8.9261
 196        8.9265
 197        9.2989
 198        9.2992
 199        9.9343
 200        9.9472
 201       10.6826
 202       10.8882
 203       10.8944
 204       11.1814
 205       11.1832
 206       11.4832
 207       11.4849
 208       11.4867
 209       11.4888
 210       11.5583
 211       11.7022
 212       11.7025
 213       12.3367
 214       12.3464
 215       12.7859
 216       12.7935
 
  0.2857143E+00  0.1428571E+00  0.0000000E+00  0.2332362E-01
   1       -5.2686
   2       -4.0395
   3       -3.2822
   4       -2.5992
   5       -2.5990
   6       -2.2623
   7       -2.0240
   8       -1.7122
   9       -1.7120
  10       -1.6402
  11       -1.3895
  12       -1.3893
  13       -1.3578
  14       -1.3575
  15       -1.2269
  16       -1.1943
  17       -1.1942
  18       -1.1312
  19       -1.0390
  20       -1.0141
  21       -0.8290
  22       -0.8289
  23       -0.6309
  24       -0.6271
  25       -0.6270
  26       -0.5924
  27       -0.5875
  28       -0.5775
  29       -0.4854
  30       -0.4853
  31       -0.4128
  32       -0.3856
  33       -0.3454
  34       -0.3302
  35       -0.3208
  36       -0.3207
  37       -0.2753
  38       -0.2656
  39       -0.1640
  40       -0.1247
  41       -0.0536
  42       -0.0153
  43       -0.0149
  44       -0.0103
  45       -0.0096
  46       -0.0016
  47        0.0152
  48        0.0555
  49        0.0951
  50        0.0951
  51        0.1161
  52        0.1251
  53        0.1257
  54        0.1554
  55        0.1929
  56        0.2244
  57        0.2247
  58        0.2470
  59        0.2692
  60        0.2700
  61        0.2910
  62        0.2911
  63        0.3076
  64        0.3152
  65        0.3364
  66        0.3367
  67        0.4060
  68        0.4147
  69        0.4472
  70        0.4475
  71        0.4938
  72        0.4939
  73        0.5127
  74        0.5128
  75        0.5304
  76        0.5305
  77        0.5673
  78        0.5944
  79        0.5945
  80        0.6361
  81        0.6797
  82        0.6798
  83        0.6960
  84        0.7024
  85        0.7098
  86        0.7123
  87        0.7126
  88        0.7250
  89        0.7892
  90        0.7896
  91        0.8227
  92        0.8475
  93        0.9401
  94        0.9533
  95        0.9534
  96        0.9881
  97        1.0184
  98        1.0187
  99        1.1101
 100        1.1103
 101        1.1313
 102        1.1475
 103        1.1664
 104        1.2018
 105        1.2019
 106        1.2038
 107        1.2106
 108        1.2161
 109        1.2174
 110        1.2730
 111        1.2741
 112        1.2979
 113        1.2981
 114        1.3182
 115        1.3262
 116        1.3538
 117        1.3539
 118        1.3859
 119        1.3932
 120        1.3934
 121        1.4307
 122        1.4392
 123        1.4395
 124        1.4527
 125        1.4584
 126        1.4674
 127        1.4706
 128        1.5196
 129        1.5197
 130        1.5451
 131        1.5592
 132        1.5624
 133        1.5832
 134        1.5834
 135        1.6030
 136        1.6218
 137        1.6368
 138        1.6970
 139        1.7006
 140        1.7011
 141        1.7036
 142        1.7038
 143        1.7071
 144        1.7122
 145        1.7204
 146        1.7419
 147        1.8149
 148        1.8150
 149        1.8688
 150        1.8824
 151        1.9090
 152        1.9250
 153        1.9369
 154        1.9372
 155        1.9642
 156        1.9643
 157        1.9729
 158        1.9775
 159        2.0204
 160        2.0205
 161        2.0319
 162        2.0327
 163        2.0365
 164        2.1050
 165        2.1072
 166        2.1085
 167        2.1105
 168        2.2469
 169        2.5148
 170        2.5149
 171        2.5863
 172        2.5865
 173        2.8253
 174        2.8254
 175        2.9174
 176        3.5726
 177        3.5728
 178        3.8751
 179        3.8753
 180        3.9987
 181        4.0521
 182        4.6245
 183        4.6246
 184        5.3429
 185        5.3468
 186        5.8914
 187        7.0105
 188        7.3582
 189        7.5632
 190        7.5634
 191        7.8176
 192        7.8179
 193        8.0194
 194        8.6265
 195        8.6265
 196        8.6509
 197        9.1680
 198        9.3953
 199        9.3953
 200       10.2204
 201       10.2204
 202       10.7537
 203       10.7902
 204       10.8017
 205       10.8020
 206       10.8661
 207       11.1244
 208       11.2734
 209       11.4098
 210       11.8107
 211       11.8110
 212       11.8361
 213       11.9667
 214       11.9775
 215       12.4505
 216       12.6340
 
  0.4285714E+00  0.1428571E+00  0.0000000E+00  0.2332362E-01
   1       -4.9679
   2       -4.5547
   3       -3.0248
   4       -2.6788
   5       -2.3678
   6       -2.3677
   7       -2.0639
   8       -2.0639
   9       -1.8106
  10       -1.5355
  11       -1.3872
  12       -1.3868
  13       -1.3732
  14       -1.3729
  15       -1.3206
  16       -1.1775
  17       -1.0864
  18       -1.0863
  19       -0.9608
  20       -0.9607
  21       -0.9093
  22       -0.8891
  23       -0.7499
  24       -0.7351
  25       -0.5549
  26       -0.5433
  27       -0.5423
  28       -0.4529
  29       -0.4258
  30       -0.4219